
     Program PWSCF v.6.5 starts on  4Jan2021 at 10:11:37 

     This program is part of the open-source Quantum ESPRESSO suite
     for quantum simulation of materials; please cite
         "P. Giannozzi et al., J. Phys.:Condens. Matter 21 395502 (2009);
         "P. Giannozzi et al., J. Phys.:Condens. Matter 29 465901 (2017);
          URL http://www.quantum-espresso.org", 
     in publications or presentations arising from this work. More details at
     http://www.quantum-espresso.org/quote

     Parallel version (MPI & OpenMP), running on      24 processor cores
     Number of MPI processes:                24
     Threads/MPI process:                     1

     MPI processes distributed on     1 nodes
     R & G space division:  proc/nbgrp/npool/nimage =      24
     Waiting for input...
     Reading input from standard input

     Current dimensions of program PWSCF are:
     Max number of different atomic species (ntypx) = 10
     Max number of k-points (npk) =  40000
     Max angular momentum in pseudopotentials (lmaxx) =  3
               file Ag.pbe-dn-kjpaw_psl.0.1.UPF: wavefunction(s)  5S 5P 4D renormalized
               file Bi.pbe-dn-kjpaw_psl.1.0.0.UPF: wavefunction(s)  6P 5D renormalized
     Message from routine set_cutoff:
     ecutrho < 4*ecutwfc, are you sure?

     gamma-point specific algorithms are used

     Subspace diagonalization in iterative solution of the eigenvalue problem:
     one sub-group per band group will be used
     scalapack distributed-memory algorithm (size of sub-group:  4*  4 procs)

 
     Parallelization info
     --------------------
     sticks:   dense  smooth     PW     G-vecs:    dense   smooth      PW
     Min         476     476    237                38424    38424   13581
     Max         478     478    240                38442    38442   13592
     Sum       11449   11449   5721               922329   922329  326029
 


     bravais-lattice index     =            1
     lattice parameter (alat)  =      30.0000  a.u.
     unit-cell volume          =   27000.0000 (a.u.)^3
     number of atoms/cell      =           13
     number of atomic types    =            2
     number of electrons       =       147.00
     number of Kohn-Sham states=           89
     kinetic-energy cutoff     =      80.0000  Ry
     charge density cutoff     =     160.0000  Ry
     convergence threshold     =      1.0E-08
     mixing beta               =       0.7000
     number of iterations used =            8  local-TF  mixing
     Exchange-correlation= SLA PW PBX PBC
                           (   1   4   3   4   0   0   0)

     celldm(1)=  30.000000  celldm(2)=   0.000000  celldm(3)=   0.000000
     celldm(4)=   0.000000  celldm(5)=   0.000000  celldm(6)=   0.000000

     crystal axes: (cart. coord. in units of alat)
               a(1) = (   1.000000   0.000000   0.000000 )  
               a(2) = (   0.000000   1.000000   0.000000 )  
               a(3) = (   0.000000   0.000000   1.000000 )  

     reciprocal axes: (cart. coord. in units 2 pi/alat)
               b(1) = (  1.000000  0.000000  0.000000 )  
               b(2) = (  0.000000  1.000000  0.000000 )  
               b(3) = (  0.000000  0.000000  1.000000 )  


     PseudoPot. # 1 for Ag read from file:
     ../../pseudo/Ag.pbe-dn-kjpaw_psl.0.1.UPF
     MD5 check sum: 2edc915f30f03476250949c796a6a376
     Pseudo is Projector augmented-wave + core cor, Zval = 11.0
     Generated using "atomic" code by A. Dal Corso v.5.0.2 svn rev. 9415
     Shape of augmentation charge: PSQ
     Using radial grid of 1237 points,  6 beta functions with: 
                l(1) =   0
                l(2) =   0
                l(3) =   1
                l(4) =   1
                l(5) =   2
                l(6) =   2
     Q(r) pseudized with 0 coefficients 


     PseudoPot. # 2 for Bi read from file:
     ../../pseudo/Bi.pbe-dn-kjpaw_psl.1.0.0.UPF
     MD5 check sum: 266ded784ae3bc462508ed03f0f37963
     Pseudo is Projector augmented-wave + core cor, Zval = 15.0
     Generated using "atomic" code by A. Dal Corso v.6.2.2
     Shape of augmentation charge: PSQ
     Using radial grid of 1283 points,  6 beta functions with: 
                l(1) =   0
                l(2) =   0
                l(3) =   1
                l(4) =   1
                l(5) =   2
                l(6) =   2
     Q(r) pseudized with 0 coefficients 


     atomic species   valence    mass     pseudopotential
        Ag            11.00   107.87000     Ag( 1.00)
        Bi            15.00   208.98000     Bi( 1.00)

     Starting magnetic structure 
     atomic species   magnetization
        Ag           0.700
        Bi           0.000

     No symmetry found


                                    s                        frac. trans.

      isym =  1     identity                                     

 cryst.   s( 1) = (     1          0          0      )
                  (     0          1          0      )
                  (     0          0          1      )

 cart.    s( 1) = (  1.0000000  0.0000000  0.0000000 )
                  (  0.0000000  1.0000000  0.0000000 )
                  (  0.0000000  0.0000000  1.0000000 )


     point group C_1 (1)    
     there are  1 classes
     the character table:

       E    
A      1.00

     the symmetry operations in each class and the name of the first element:

     E        1
          identity                                               

   Cartesian axes

     site n.     atom                  positions (alat units)
         1           Ag  tau(   1) = (   0.1451756   0.1419011   0.2862562  )
         2           Ag  tau(   2) = (   0.1763615   0.3138643   0.3627289  )
         3           Ag  tau(   3) = (   0.4388654   0.2191273   0.2308980  )
         4           Ag  tau(   4) = (   0.3127132   0.1806092   0.3687629  )
         5           Ag  tau(   5) = (   0.3492308   0.2041399   0.0631595  )
         6           Ag  tau(   6) = (   0.3804237   0.3760970   0.1396875  )
         7           Ag  tau(   7) = (   0.1677285   0.1564006   0.0973732  )
         8           Bi  tau(   8) = (   0.2627855   0.2589986   0.2129311  )
         9           Ag  tau(   9) = (   0.2180991   0.4346439   0.2211261  )
        10           Ag  tau(  10) = (   0.3578268   0.3616059   0.3285138  )
        11           Ag  tau(  11) = (   0.0866983   0.2988510   0.1949738  )
        12           Ag  tau(  12) = (   0.2128451   0.3373894   0.0571239  )
        13           Ag  tau(  13) = (   0.3074386   0.0833371   0.2048065  )

   Crystallographic axes

     site n.     atom                  positions (cryst. coord.)
         1           Ag  tau(   1) = (  0.1451756  0.1419011  0.2862562  )
         2           Ag  tau(   2) = (  0.1763615  0.3138643  0.3627289  )
         3           Ag  tau(   3) = (  0.4388654  0.2191273  0.2308980  )
         4           Ag  tau(   4) = (  0.3127132  0.1806092  0.3687629  )
         5           Ag  tau(   5) = (  0.3492308  0.2041399  0.0631595  )
         6           Ag  tau(   6) = (  0.3804237  0.3760970  0.1396875  )
         7           Ag  tau(   7) = (  0.1677285  0.1564006  0.0973732  )
         8           Bi  tau(   8) = (  0.2627855  0.2589986  0.2129311  )
         9           Ag  tau(   9) = (  0.2180991  0.4346439  0.2211261  )
        10           Ag  tau(  10) = (  0.3578268  0.3616059  0.3285138  )
        11           Ag  tau(  11) = (  0.0866983  0.2988510  0.1949738  )
        12           Ag  tau(  12) = (  0.2128451  0.3373894  0.0571239  )
        13           Ag  tau(  13) = (  0.3074386  0.0833371  0.2048065  )

     number of k points=     1  Fermi-Dirac smearing, width (Ry)=  0.0007
                       cart. coord. in units 2pi/alat
        k(    1) = (   0.0000000   0.0000000   0.0000000), wk =   1.0000000

                       cryst. coord.
        k(    1) = (   0.0000000   0.0000000   0.0000000), wk =   1.0000000

     Dense  grid:   461165 G-vectors     FFT dimensions: ( 125, 125, 125)

     Dynamical RAM for                 wfc:       9.23 MB

     Dynamical RAM for     wfc (w. buffer):      27.69 MB

     Dynamical RAM for           str. fact:       0.59 MB

     Dynamical RAM for           local pot:       0.00 MB

     Dynamical RAM for          nlocal pot:      24.27 MB

     Dynamical RAM for                qrad:       9.68 MB

     Dynamical RAM for          rho,v,vnew:       6.05 MB

     Dynamical RAM for               rhoin:       2.02 MB

     Dynamical RAM for            rho*nmix:       9.39 MB

     Dynamical RAM for           G-vectors:       1.25 MB

     Dynamical RAM for          h,s,v(r/c):       0.18 MB

     Dynamical RAM for          <psi|beta>:       0.16 MB

     Dynamical RAM for                 psi:      36.92 MB

     Dynamical RAM for                hpsi:      36.92 MB

     Dynamical RAM for                spsi:      36.92 MB

     Dynamical RAM for      wfcinit/wfcrot:      24.58 MB

     Dynamical RAM for           addusdens:      58.36 MB

     Estimated static dynamical RAM per process >      86.09 MB

     Estimated max dynamical RAM per process >     197.18 MB

     Estimated total dynamical RAM >       4.62 GB
     Generating pointlists ...
     new r_m :   0.0748 (alat units)  2.2451 (a.u.) for type    1
     new r_m :   0.0748 (alat units)  2.2451 (a.u.) for type    2

     Check: negative core charge=   -0.000009

     Initial potential from superposition of free atoms

     starting charge  146.99440, renormalised to  147.00000
     Starting wfcs are  117 randomized atomic wfcs
     Checking if some PAW data can be deallocated... 
       PAW data deallocated on    2 nodes for type:  1
       PAW data deallocated on   22 nodes for type:  2

     total cpu time spent up to now is       18.3 secs

     Self-consistent Calculation

     iteration #  1     ecut=    80.00 Ry     beta= 0.70
     Davidson diagonalization with overlap
     ethr =  1.00E-02,  avg # of iterations =  3.0

     total cpu time spent up to now is       45.6 secs

     total energy              =   -5168.12101588 Ry
     Harris-Foulkes estimate   =   -5162.00039965 Ry
     estimated scf accuracy    <       6.51404024 Ry

     total magnetization       =     7.00 Bohr mag/cell
     absolute magnetization    =     7.00 Bohr mag/cell

     iteration #  2     ecut=    80.00 Ry     beta= 0.70
     Davidson diagonalization with overlap
     ethr =  4.43E-03,  avg # of iterations =  1.0

     total cpu time spent up to now is       69.8 secs

     total energy              =   -5168.97600152 Ry
     Harris-Foulkes estimate   =   -5168.31204525 Ry
     estimated scf accuracy    <       0.85521455 Ry

     total magnetization       =     3.00 Bohr mag/cell
     absolute magnetization    =     3.34 Bohr mag/cell

     iteration #  3     ecut=    80.00 Ry     beta= 0.70
     Davidson diagonalization with overlap
     ethr =  5.82E-04,  avg # of iterations =  3.0

     total cpu time spent up to now is       96.9 secs

     total energy              =   -5169.03174078 Ry
     Harris-Foulkes estimate   =   -5169.04047023 Ry
     estimated scf accuracy    <       0.05555930 Ry

     total magnetization       =     3.00 Bohr mag/cell
     absolute magnetization    =     3.10 Bohr mag/cell

     iteration #  4     ecut=    80.00 Ry     beta= 0.70
     Davidson diagonalization with overlap
     ethr =  3.78E-05,  avg # of iterations = 10.5

     total cpu time spent up to now is      139.1 secs

     total energy              =   -5169.04216287 Ry
     Harris-Foulkes estimate   =   -5169.04727039 Ry
     estimated scf accuracy    <       0.02789352 Ry

     total magnetization       =     3.00 Bohr mag/cell
     absolute magnetization    =     3.04 Bohr mag/cell

     iteration #  5     ecut=    80.00 Ry     beta= 0.70
     Davidson diagonalization with overlap
     ethr =  1.90E-05,  avg # of iterations =  2.0

     total cpu time spent up to now is      164.3 secs

     total energy              =   -5169.04130749 Ry
     Harris-Foulkes estimate   =   -5169.04345204 Ry
     estimated scf accuracy    <       0.01672215 Ry

     total magnetization       =     3.00 Bohr mag/cell
     absolute magnetization    =     3.06 Bohr mag/cell

     iteration #  6     ecut=    80.00 Ry     beta= 0.70
     Davidson diagonalization with overlap
     ethr =  1.14E-05,  avg # of iterations =  7.5

     total cpu time spent up to now is      191.8 secs

     total energy              =   -5169.04016584 Ry
     Harris-Foulkes estimate   =   -5169.04181604 Ry
     estimated scf accuracy    <       0.01194942 Ry

     total magnetization       =     3.00 Bohr mag/cell
     absolute magnetization    =     3.08 Bohr mag/cell

     iteration #  7     ecut=    80.00 Ry     beta= 0.70
     Davidson diagonalization with overlap
     ethr =  8.13E-06,  avg # of iterations = 12.5

     total cpu time spent up to now is      223.8 secs

     total energy              =   -5169.03819197 Ry
     Harris-Foulkes estimate   =   -5169.04062771 Ry
     estimated scf accuracy    <       0.00697952 Ry

     total magnetization       =     3.00 Bohr mag/cell
     absolute magnetization    =     3.08 Bohr mag/cell

     iteration #  8     ecut=    80.00 Ry     beta= 0.70
     Davidson diagonalization with overlap
     ethr =  4.75E-06,  avg # of iterations = 11.0

     total cpu time spent up to now is      256.7 secs

     total energy              =   -5169.03748077 Ry
     Harris-Foulkes estimate   =   -5169.03846340 Ry
     estimated scf accuracy    <       0.00405622 Ry

     total magnetization       =     3.00 Bohr mag/cell
     absolute magnetization    =     3.09 Bohr mag/cell

     iteration #  9     ecut=    80.00 Ry     beta= 0.70
     Davidson diagonalization with overlap
     c_bands:  1 eigenvalues not converged
     ethr =  2.76E-06,  avg # of iterations = 13.0

     total cpu time spent up to now is      290.3 secs

     total energy              =   -5169.03835927 Ry
     Harris-Foulkes estimate   =   -5169.03781274 Ry
     estimated scf accuracy    <       0.00187836 Ry

     total magnetization       =     3.00 Bohr mag/cell
     absolute magnetization    =     3.08 Bohr mag/cell

     iteration # 10     ecut=    80.00 Ry     beta= 0.70
     Davidson diagonalization with overlap
     ethr =  1.28E-06,  avg # of iterations =  6.5

     total cpu time spent up to now is      319.3 secs

     total energy              =   -5169.03888841 Ry
     Harris-Foulkes estimate   =   -5169.03847751 Ry
     estimated scf accuracy    <       0.00125297 Ry

     total magnetization       =     3.00 Bohr mag/cell
     absolute magnetization    =     3.07 Bohr mag/cell

     iteration # 11     ecut=    80.00 Ry     beta= 0.70
     Davidson diagonalization with overlap
     ethr =  8.52E-07,  avg # of iterations =  2.5

     total cpu time spent up to now is      345.6 secs

     total energy              =   -5169.03907746 Ry
     Harris-Foulkes estimate   =   -5169.03897594 Ry
     estimated scf accuracy    <       0.00078236 Ry

     total magnetization       =     3.00 Bohr mag/cell
     absolute magnetization    =     3.07 Bohr mag/cell

     iteration # 12     ecut=    80.00 Ry     beta= 0.70
     Davidson diagonalization with overlap
     ethr =  5.32E-07,  avg # of iterations =  5.5

     total cpu time spent up to now is      373.8 secs

     total energy              =   -5169.03914231 Ry
     Harris-Foulkes estimate   =   -5169.03914140 Ry
     estimated scf accuracy    <       0.00047399 Ry

     total magnetization       =     3.00 Bohr mag/cell
     absolute magnetization    =     3.08 Bohr mag/cell

     iteration # 13     ecut=    80.00 Ry     beta= 0.70
     Davidson diagonalization with overlap
     ethr =  3.22E-07,  avg # of iterations =  2.5

     total cpu time spent up to now is      399.3 secs

     total energy              =   -5169.03919693 Ry
     Harris-Foulkes estimate   =   -5169.03917535 Ry
     estimated scf accuracy    <       0.00028185 Ry

     total magnetization       =     3.00 Bohr mag/cell
     absolute magnetization    =     3.08 Bohr mag/cell

     iteration # 14     ecut=    80.00 Ry     beta= 0.70
     Davidson diagonalization with overlap
     ethr =  1.92E-07,  avg # of iterations =  5.0

     total cpu time spent up to now is      428.3 secs

     total energy              =   -5169.03922741 Ry
     Harris-Foulkes estimate   =   -5169.03922466 Ry
     estimated scf accuracy    <       0.00018230 Ry

     total magnetization       =     3.00 Bohr mag/cell
     absolute magnetization    =     3.08 Bohr mag/cell

     iteration # 15     ecut=    80.00 Ry     beta= 0.70
     Davidson diagonalization with overlap
     ethr =  1.24E-07,  avg # of iterations =  1.5

     total cpu time spent up to now is      453.2 secs

     total energy              =   -5169.03924956 Ry
     Harris-Foulkes estimate   =   -5169.03923161 Ry
     estimated scf accuracy    <       0.00009312 Ry

     total magnetization       =     3.00 Bohr mag/cell
     absolute magnetization    =     3.08 Bohr mag/cell

     iteration # 16     ecut=    80.00 Ry     beta= 0.70
     Davidson diagonalization with overlap
     ethr =  6.33E-08,  avg # of iterations =  1.5

     total cpu time spent up to now is      477.8 secs

     total energy              =   -5169.03925520 Ry
     Harris-Foulkes estimate   =   -5169.03924776 Ry
     estimated scf accuracy    <       0.00005291 Ry

     total magnetization       =     3.00 Bohr mag/cell
     absolute magnetization    =     3.08 Bohr mag/cell

     iteration # 17     ecut=    80.00 Ry     beta= 0.70
     Davidson diagonalization with overlap
     ethr =  3.60E-08,  avg # of iterations =  3.0

     total cpu time spent up to now is      504.4 secs

     total energy              =   -5169.03925918 Ry
     Harris-Foulkes estimate   =   -5169.03925691 Ry
     estimated scf accuracy    <       0.00002997 Ry

     total magnetization       =     3.00 Bohr mag/cell
     absolute magnetization    =     3.08 Bohr mag/cell

     iteration # 18     ecut=    80.00 Ry     beta= 0.70
     Davidson diagonalization with overlap
     ethr =  2.04E-08,  avg # of iterations =  1.5

     total cpu time spent up to now is      529.4 secs

     total energy              =   -5169.03926439 Ry
     Harris-Foulkes estimate   =   -5169.03926006 Ry
     estimated scf accuracy    <       0.00001169 Ry

     total magnetization       =     3.00 Bohr mag/cell
     absolute magnetization    =     3.08 Bohr mag/cell

     iteration # 19     ecut=    80.00 Ry     beta= 0.70
     Davidson diagonalization with overlap
     ethr =  7.95E-09,  avg # of iterations =  3.0

     total cpu time spent up to now is      556.2 secs

     total energy              =   -5169.03926671 Ry
     Harris-Foulkes estimate   =   -5169.03926609 Ry
     estimated scf accuracy    <       0.00000699 Ry

     total magnetization       =     3.00 Bohr mag/cell
     absolute magnetization    =     3.08 Bohr mag/cell

     iteration # 20     ecut=    80.00 Ry     beta= 0.70
     Davidson diagonalization with overlap
     ethr =  4.75E-09,  avg # of iterations =  1.5

     total cpu time spent up to now is      580.8 secs

     total energy              =   -5169.03926767 Ry
     Harris-Foulkes estimate   =   -5169.03926761 Ry
     estimated scf accuracy    <       0.00000299 Ry

     total magnetization       =     3.00 Bohr mag/cell
     absolute magnetization    =     3.08 Bohr mag/cell

     iteration # 21     ecut=    80.00 Ry     beta= 0.70
     Davidson diagonalization with overlap
     ethr =  2.03E-09,  avg # of iterations =  3.0

     total cpu time spent up to now is      608.1 secs

     total energy              =   -5169.03926810 Ry
     Harris-Foulkes estimate   =   -5169.03926782 Ry
     estimated scf accuracy    <       0.00000184 Ry

     total magnetization       =     3.00 Bohr mag/cell
     absolute magnetization    =     3.08 Bohr mag/cell

     iteration # 22     ecut=    80.00 Ry     beta= 0.70
     Davidson diagonalization with overlap
     ethr =  1.25E-09,  avg # of iterations =  2.0

     total cpu time spent up to now is      633.8 secs

     total energy              =   -5169.03926889 Ry
     Harris-Foulkes estimate   =   -5169.03926863 Ry
     estimated scf accuracy    <       0.00000071 Ry

     total magnetization       =     3.00 Bohr mag/cell
     absolute magnetization    =     3.08 Bohr mag/cell

     iteration # 23     ecut=    80.00 Ry     beta= 0.70
     Davidson diagonalization with overlap
     ethr =  4.83E-10,  avg # of iterations =  2.5

     total cpu time spent up to now is      660.1 secs

     total energy              =   -5169.03926903 Ry
     Harris-Foulkes estimate   =   -5169.03926884 Ry
     estimated scf accuracy    <       0.00000037 Ry

     total magnetization       =     3.00 Bohr mag/cell
     absolute magnetization    =     3.08 Bohr mag/cell

     iteration # 24     ecut=    80.00 Ry     beta= 0.70
     Davidson diagonalization with overlap
     ethr =  2.52E-10,  avg # of iterations =  2.0

     total cpu time spent up to now is      686.1 secs

     total energy              =   -5169.03926906 Ry
     Harris-Foulkes estimate   =   -5169.03926906 Ry
     estimated scf accuracy    <       0.00000024 Ry

     total magnetization       =     3.00 Bohr mag/cell
     absolute magnetization    =     3.08 Bohr mag/cell

     iteration # 25     ecut=    80.00 Ry     beta= 0.70
     Davidson diagonalization with overlap
     ethr =  1.63E-10,  avg # of iterations =  2.5

     total cpu time spent up to now is      712.3 secs

     total energy              =   -5169.03926910 Ry
     Harris-Foulkes estimate   =   -5169.03926905 Ry
     estimated scf accuracy    <       0.00000008 Ry

     total magnetization       =     3.00 Bohr mag/cell
     absolute magnetization    =     3.08 Bohr mag/cell

     iteration # 26     ecut=    80.00 Ry     beta= 0.70
     Davidson diagonalization with overlap
     ethr =  5.58E-11,  avg # of iterations =  3.0

     total cpu time spent up to now is      739.5 secs

     total energy              =   -5169.03926904 Ry
     Harris-Foulkes estimate   =   -5169.03926904 Ry
     estimated scf accuracy    <       0.00000003 Ry

     total magnetization       =     3.00 Bohr mag/cell
     absolute magnetization    =     3.08 Bohr mag/cell

     iteration # 27     ecut=    80.00 Ry     beta= 0.70
     Davidson diagonalization with overlap
     ethr =  2.27E-11,  avg # of iterations =  4.0

     total cpu time spent up to now is      766.9 secs

     total energy              =   -5169.03926903 Ry
     Harris-Foulkes estimate   =   -5169.03926902 Ry
     estimated scf accuracy    <       0.00000002 Ry

     total magnetization       =     3.00 Bohr mag/cell
     absolute magnetization    =     3.08 Bohr mag/cell

     iteration # 28     ecut=    80.00 Ry     beta= 0.70
     Davidson diagonalization with overlap
     ethr =  1.26E-11,  avg # of iterations =  3.5

     total cpu time spent up to now is      794.3 secs

     total energy              =   -5169.03926906 Ry
     Harris-Foulkes estimate   =   -5169.03926907 Ry
     estimated scf accuracy    <       0.00000001 Ry

     total magnetization       =     3.00 Bohr mag/cell
     absolute magnetization    =     3.08 Bohr mag/cell

     iteration # 29     ecut=    80.00 Ry     beta= 0.70
     Davidson diagonalization with overlap
     ethr =  8.80E-12,  avg # of iterations =  2.0
 
     Magnetic moment per site:
     atom:    1    charge:    9.5804    magn:    0.0878    constr:    0.0000
     atom:    2    charge:    9.5808    magn:    0.0867    constr:    0.0000
     atom:    3    charge:    9.5811    magn:    0.0854    constr:    0.0000
     atom:    4    charge:    9.5806    magn:    0.0864    constr:    0.0000
     atom:    5    charge:    9.5804    magn:    0.0867    constr:    0.0000
     atom:    6    charge:    9.5800    magn:    0.0878    constr:    0.0000
     atom:    7    charge:    9.5799    magn:    0.0874    constr:    0.0000
     atom:    8    charge:   12.3515    magn:   -0.0036    constr:    0.0000
     atom:    9    charge:    9.5814    magn:    0.0856    constr:    0.0000
     atom:   10    charge:    9.5806    magn:    0.0874    constr:    0.0000
     atom:   11    charge:    9.5812    magn:    0.0854    constr:    0.0000
     atom:   12    charge:    9.5806    magn:    0.0864    constr:    0.0000
     atom:   13    charge:    9.5815    magn:    0.0857    constr:    0.0000

     total cpu time spent up to now is      818.9 secs

     End of self-consistent calculation

 ------ SPIN UP ------------


          k = 0.0000 0.0000 0.0000 (163015 PWs)   bands (ev):

   -26.9037 -26.9033 -26.8985 -26.8970 -26.8965 -15.6380  -9.1731  -9.1729
    -9.1726  -7.8981  -7.8978  -7.8964  -7.8950  -7.8940  -7.8761  -7.8750
    -7.8737  -7.8733  -7.6884  -7.6881  -7.6876  -7.6141  -7.5887  -7.5886
    -7.5883  -7.5879  -7.3872  -7.3870  -7.3867  -7.2637  -7.2633  -7.2624
    -7.2617  -7.2606  -7.0595  -7.0590  -7.0585  -7.0578  -7.0573  -6.9109
    -6.9106  -6.9099  -6.9088  -6.9079  -6.8895  -6.8870  -6.8863  -6.7043
    -6.7029  -6.7024  -6.7010  -6.5709  -6.5697  -6.5693  -6.5682  -6.5677
    -6.4866  -6.4851  -6.4850  -6.4806  -6.4796  -6.4791  -6.4771  -6.2820
    -6.2816  -6.2803  -5.8460  -5.8441  -5.8435  -5.1441  -3.4466  -3.4430
    -3.4409  -3.4367  -3.4329  -2.2349  -2.2346  -2.2331  -1.3164  -1.3153
    -1.3116  -0.8440  -0.8410  -0.8364  -0.8346  -0.4238   0.2502   0.2564
     0.3527

     occupation numbers 
     1.0000   1.0000   1.0000   1.0000   1.0000   1.0000   1.0000   1.0000
     1.0000   1.0000   1.0000   1.0000   1.0000   1.0000   1.0000   1.0000
     1.0000   1.0000   1.0000   1.0000   1.0000   1.0000   1.0000   1.0000
     1.0000   1.0000   1.0000   1.0000   1.0000   1.0000   1.0000   1.0000
     1.0000   1.0000   1.0000   1.0000   1.0000   1.0000   1.0000   1.0000
     1.0000   1.0000   1.0000   1.0000   1.0000   1.0000   1.0000   1.0000
     1.0000   1.0000   1.0000   1.0000   1.0000   1.0000   1.0000   1.0000
     1.0000   1.0000   1.0000   1.0000   1.0000   1.0000   1.0000   1.0000
     1.0000   1.0000   1.0000   1.0000   1.0000   1.0000   1.0000   1.0000
     1.0000   1.0000   1.0000   0.0000   0.0000   0.0000   0.0000   0.0000
     0.0000   0.0000   0.0000   0.0000   0.0000   0.0000   0.0000   0.0000
     0.0000

 ------ SPIN DOWN ----------


          k = 0.0000 0.0000 0.0000 (163015 PWs)   bands (ev):

   -26.9025 -26.9022 -26.8983 -26.8980 -26.8971 -15.6243  -9.1046  -9.1044
    -9.1039  -7.8266  -7.8262  -7.8255  -7.8251  -7.8244  -7.8101  -7.8093
    -7.8087  -7.8086  -7.6027  -7.6025  -7.6019  -7.5151  -7.5149  -7.5147
    -7.5142  -7.4874  -7.2998  -7.2996  -7.2989  -7.1961  -7.1959  -7.1956
    -7.1948  -7.1947  -6.9985  -6.9982  -6.9980  -6.9973  -6.9969  -6.8628
    -6.8626  -6.8614  -6.8612  -6.8602  -6.8482  -6.8466  -6.8460  -6.6415
    -6.6407  -6.6406  -6.6403  -6.5125  -6.5118  -6.5115  -6.5108  -6.5106
    -6.4323  -6.4311  -6.4311  -6.4202  -6.4199  -6.4197  -6.4190  -6.2329
    -6.2325  -6.2319  -5.7209  -5.7207  -5.7205  -4.9955  -3.2153  -3.2141
    -3.2128  -3.2121  -3.2109  -2.0881  -2.0880  -2.0873  -1.1163  -1.1145
    -1.1128  -0.5913  -0.5898  -0.5876  -0.5850  -0.3181   0.3616   0.3727
     0.4050

     occupation numbers 
     1.0000   1.0000   1.0000   1.0000   1.0000   1.0000   1.0000   1.0000
     1.0000   1.0000   1.0000   1.0000   1.0000   1.0000   1.0000   1.0000
     1.0000   1.0000   1.0000   1.0000   1.0000   1.0000   1.0000   1.0000
     1.0000   1.0000   1.0000   1.0000   1.0000   1.0000   1.0000   1.0000
     1.0000   1.0000   1.0000   1.0000   1.0000   1.0000   1.0000   1.0000
     1.0000   1.0000   1.0000   1.0000   1.0000   1.0000   1.0000   1.0000
     1.0000   1.0000   1.0000   1.0000   1.0000   1.0000   1.0000   1.0000
     1.0000   1.0000   1.0000   1.0000   1.0000   1.0000   1.0000   1.0000
     1.0000   1.0000   1.0000   1.0000   1.0000   1.0000   0.4575   0.4263
     0.3935   0.3758   0.3470   0.0000   0.0000   0.0000   0.0000   0.0000
     0.0000   0.0000   0.0000   0.0000   0.0000   0.0000   0.0000   0.0000
     0.0000

     the Fermi energy is    -3.2169 ev

!    total energy              =   -5169.03926902 Ry
     Harris-Foulkes estimate   =   -5169.03926905 Ry
     estimated scf accuracy    <          4.0E-09 Ry

     total all-electron energy =   -170648.089931 Ry

     The total energy is the sum of the following terms:

     one-electron contribution =   -3713.23822603 Ry
     hartree contribution      =    1951.50063319 Ry
     xc contribution           =    -459.75834518 Ry
     ewald contribution        =     958.99408003 Ry
     one-center paw contrib.   =   -3906.53506633 Ry
      -> PAW hartree energy AE =      66.74910712 Ry
      -> PAW hartree energy PS =     -66.60174546 Ry
      -> PAW xc energy AE      =    -297.85710019 Ry
      -> PAW xc energy PS      =      35.21454156 Ry
      -> total E_H with PAW    =    1951.64799485 Ry
      -> total E_XC with PAW   =    -722.40090380 Ry
     smearing contrib. (-TS)   =      -0.00234470 Ry

     total magnetization       =     3.00 Bohr mag/cell
     absolute magnetization    =     3.08 Bohr mag/cell

     convergence has been achieved in  29 iterations

     Writing output data file ./tmp/ag12Bic.save/
 
     init_run     :     13.62s CPU     14.16s WALL (       1 calls)
     electrons    :    784.02s CPU    800.64s WALL (       1 calls)

     Called by init_run:
     wfcinit      :      9.05s CPU      9.26s WALL (       1 calls)
     wfcinit:atom :      0.12s CPU      0.15s WALL (       2 calls)
     wfcinit:wfcr :      8.67s CPU      8.78s WALL (       2 calls)
     potinit      :      2.20s CPU      2.30s WALL (       1 calls)
     hinit0       :      0.91s CPU      0.99s WALL (       1 calls)

     Called by electrons:
     c_bands      :    529.81s CPU    539.17s WALL (      29 calls)
     sum_band     :    134.41s CPU    138.10s WALL (      29 calls)
     v_of_rho     :     21.99s CPU     22.35s WALL (      30 calls)
     v_h          :      1.35s CPU      1.36s WALL (      30 calls)
     v_xc         :     20.64s CPU     20.99s WALL (      30 calls)
     newd         :     27.81s CPU     30.36s WALL (      30 calls)
     PAW_pot      :     38.64s CPU     39.04s WALL (      30 calls)
     mix_rho      :     33.41s CPU     33.74s WALL (      29 calls)

     Called by c_bands:
     init_us_2    :      4.99s CPU      5.06s WALL (     118 calls)
     regterg      :    502.58s CPU    511.64s WALL (      58 calls)

     Called by sum_band:
     sum_band:bec :      0.03s CPU      0.03s WALL (      58 calls)
     addusdens    :     52.34s CPU     55.71s WALL (      29 calls)

     Called by *egterg:
     h_psi        :    348.76s CPU    350.53s WALL (     304 calls)
     s_psi        :     44.43s CPU     44.53s WALL (     304 calls)
     g_psi        :      1.38s CPU      1.38s WALL (     244 calls)
     rdiaghg      :      7.74s CPU      8.22s WALL (     302 calls)
     regterg:over :     36.88s CPU     36.94s WALL (     244 calls)
     regterg:upda :     34.70s CPU     35.06s WALL (     244 calls)
     regterg:last :     11.62s CPU     11.65s WALL (      58 calls)
     rdiaghg:chol :      0.27s CPU      0.28s WALL (     302 calls)
     rdiaghg:inve :      0.22s CPU      0.22s WALL (     302 calls)
     rdiaghg:para :      0.66s CPU      0.67s WALL (     604 calls)

     Called by h_psi:
     h_psi:calbec :     30.20s CPU     30.27s WALL (     304 calls)
     vloc_psi     :    267.50s CPU    269.08s WALL (     304 calls)
     add_vuspsi   :     47.98s CPU     48.09s WALL (     304 calls)

     General routines
     calbec       :     40.56s CPU     40.65s WALL (     362 calls)
     fft          :     17.33s CPU     17.50s WALL (     507 calls)
     ffts         :     22.77s CPU     22.87s WALL (     650 calls)
     fftw         :    278.27s CPU    279.77s WALL (   14316 calls)
 
     Parallel routines
     fft_scatt_xy :     54.83s CPU     55.15s WALL (   15473 calls)
     fft_scatt_yz :     93.68s CPU     94.11s WALL (   15473 calls)

     PAW routines
     PAW_pot      :     38.64s CPU     39.04s WALL (      30 calls)
 
     PWSCF        :  13m22.07s CPU  13m40.20s WALL

 
   This run was terminated on:  10:25:17   4Jan2021            

=------------------------------------------------------------------------------=
   JOB DONE.
=------------------------------------------------------------------------------=
