
     Program PWSCF v.6.5 starts on  4Jan2021 at 15:52:19 

     This program is part of the open-source Quantum ESPRESSO suite
     for quantum simulation of materials; please cite
         "P. Giannozzi et al., J. Phys.:Condens. Matter 21 395502 (2009);
         "P. Giannozzi et al., J. Phys.:Condens. Matter 29 465901 (2017);
          URL http://www.quantum-espresso.org", 
     in publications or presentations arising from this work. More details at
     http://www.quantum-espresso.org/quote

     Parallel version (MPI & OpenMP), running on      24 processor cores
     Number of MPI processes:                24
     Threads/MPI process:                     1

     MPI processes distributed on     1 nodes
     R & G space division:  proc/nbgrp/npool/nimage =      24
     Waiting for input...
     Reading input from standard input

     Current dimensions of program PWSCF are:
     Max number of different atomic species (ntypx) = 10
     Max number of k-points (npk) =  40000
     Max angular momentum in pseudopotentials (lmaxx) =  3
               file Ag.pbe-dn-kjpaw_psl.0.1.UPF: wavefunction(s)  5S 5P 4D renormalized
               file Bi.pbe-dn-kjpaw_psl.1.0.0.UPF: wavefunction(s)  6P 5D renormalized

     gamma-point specific algorithms are used

     Subspace diagonalization in iterative solution of the eigenvalue problem:
     one sub-group per band group will be used
     scalapack distributed-memory algorithm (size of sub-group:  4*  4 procs)

 
     Parallelization info
     --------------------
     sticks:   dense  smooth     PW     G-vecs:    dense   smooth      PW
     Min        2624     953    237               495936   108738   13581
     Max        2626     956    240               495950   108748   13592
     Sum       63013   22901   5721             11902711  2609847  326029
 


     bravais-lattice index     =            1
     lattice parameter (alat)  =      30.0000  a.u.
     unit-cell volume          =   27000.0000 (a.u.)^3
     number of atoms/cell      =           13
     number of atomic types    =            2
     number of electrons       =       147.00
     number of Kohn-Sham states=           89
     kinetic-energy cutoff     =      80.0000  Ry
     charge density cutoff     =     880.0000  Ry
     convergence threshold     =      1.0E-08
     mixing beta               =       0.7000
     number of iterations used =            8  local-TF  mixing
     Exchange-correlation= SLA PW PBX PBC
                           (   1   4   3   4   0   0   0)

     celldm(1)=  30.000000  celldm(2)=   0.000000  celldm(3)=   0.000000
     celldm(4)=   0.000000  celldm(5)=   0.000000  celldm(6)=   0.000000

     crystal axes: (cart. coord. in units of alat)
               a(1) = (   1.000000   0.000000   0.000000 )  
               a(2) = (   0.000000   1.000000   0.000000 )  
               a(3) = (   0.000000   0.000000   1.000000 )  

     reciprocal axes: (cart. coord. in units 2 pi/alat)
               b(1) = (  1.000000  0.000000  0.000000 )  
               b(2) = (  0.000000  1.000000  0.000000 )  
               b(3) = (  0.000000  0.000000  1.000000 )  


     PseudoPot. # 1 for Ag read from file:
     ../../pseudo/Ag.pbe-dn-kjpaw_psl.0.1.UPF
     MD5 check sum: 2edc915f30f03476250949c796a6a376
     Pseudo is Projector augmented-wave + core cor, Zval = 11.0
     Generated using "atomic" code by A. Dal Corso v.5.0.2 svn rev. 9415
     Shape of augmentation charge: PSQ
     Using radial grid of 1237 points,  6 beta functions with: 
                l(1) =   0
                l(2) =   0
                l(3) =   1
                l(4) =   1
                l(5) =   2
                l(6) =   2
     Q(r) pseudized with 0 coefficients 


     PseudoPot. # 2 for Bi read from file:
     ../../pseudo/Bi.pbe-dn-kjpaw_psl.1.0.0.UPF
     MD5 check sum: 266ded784ae3bc462508ed03f0f37963
     Pseudo is Projector augmented-wave + core cor, Zval = 15.0
     Generated using "atomic" code by A. Dal Corso v.6.2.2
     Shape of augmentation charge: PSQ
     Using radial grid of 1283 points,  6 beta functions with: 
                l(1) =   0
                l(2) =   0
                l(3) =   1
                l(4) =   1
                l(5) =   2
                l(6) =   2
     Q(r) pseudized with 0 coefficients 


     atomic species   valence    mass     pseudopotential
        Ag            11.00   107.87000     Ag( 1.00)
        Bi            15.00   208.98000     Bi( 1.00)

     Starting magnetic structure 
     atomic species   magnetization
        Ag           0.700
        Bi           0.000

     No symmetry found


                                    s                        frac. trans.

      isym =  1     identity                                     

 cryst.   s( 1) = (     1          0          0      )
                  (     0          1          0      )
                  (     0          0          1      )

 cart.    s( 1) = (  1.0000000  0.0000000  0.0000000 )
                  (  0.0000000  1.0000000  0.0000000 )
                  (  0.0000000  0.0000000  1.0000000 )


     point group C_1 (1)    
     there are  1 classes
     the character table:

       E    
A      1.00

     the symmetry operations in each class and the name of the first element:

     E        1
          identity                                               

   Cartesian axes

     site n.     atom                  positions (alat units)
         1           Ag  tau(   1) = (   0.1451756   0.1419011   0.2862562  )
         2           Ag  tau(   2) = (   0.1763615   0.3138643   0.3627289  )
         3           Ag  tau(   3) = (   0.4388654   0.2191273   0.2308980  )
         4           Ag  tau(   4) = (   0.3127132   0.1806092   0.3687629  )
         5           Ag  tau(   5) = (   0.3492308   0.2041399   0.0631595  )
         6           Ag  tau(   6) = (   0.3804237   0.3760970   0.1396875  )
         7           Ag  tau(   7) = (   0.1677285   0.1564006   0.0973732  )
         8           Bi  tau(   8) = (   0.2627855   0.2589986   0.2129311  )
         9           Ag  tau(   9) = (   0.2180991   0.4346439   0.2211261  )
        10           Ag  tau(  10) = (   0.3578268   0.3616059   0.3285138  )
        11           Ag  tau(  11) = (   0.0866983   0.2988510   0.1949738  )
        12           Ag  tau(  12) = (   0.2128451   0.3373894   0.0571239  )
        13           Ag  tau(  13) = (   0.3074386   0.0833371   0.2048065  )

   Crystallographic axes

     site n.     atom                  positions (cryst. coord.)
         1           Ag  tau(   1) = (  0.1451756  0.1419011  0.2862562  )
         2           Ag  tau(   2) = (  0.1763615  0.3138643  0.3627289  )
         3           Ag  tau(   3) = (  0.4388654  0.2191273  0.2308980  )
         4           Ag  tau(   4) = (  0.3127132  0.1806092  0.3687629  )
         5           Ag  tau(   5) = (  0.3492308  0.2041399  0.0631595  )
         6           Ag  tau(   6) = (  0.3804237  0.3760970  0.1396875  )
         7           Ag  tau(   7) = (  0.1677285  0.1564006  0.0973732  )
         8           Bi  tau(   8) = (  0.2627855  0.2589986  0.2129311  )
         9           Ag  tau(   9) = (  0.2180991  0.4346439  0.2211261  )
        10           Ag  tau(  10) = (  0.3578268  0.3616059  0.3285138  )
        11           Ag  tau(  11) = (  0.0866983  0.2988510  0.1949738  )
        12           Ag  tau(  12) = (  0.2128451  0.3373894  0.0571239  )
        13           Ag  tau(  13) = (  0.3074386  0.0833371  0.2048065  )

     number of k points=     1  Fermi-Dirac smearing, width (Ry)=  0.0007
                       cart. coord. in units 2pi/alat
        k(    1) = (   0.0000000   0.0000000   0.0000000), wk =   1.0000000

                       cryst. coord.
        k(    1) = (   0.0000000   0.0000000   0.0000000), wk =   1.0000000

     Dense  grid:  5951356 G-vectors     FFT dimensions: ( 288, 288, 288)

     Smooth grid:  1304924 G-vectors     FFT dimensions: ( 180, 180, 180)

     Dynamical RAM for                 wfc:       9.23 MB

     Dynamical RAM for     wfc (w. buffer):      27.69 MB

     Dynamical RAM for           str. fact:       7.57 MB

     Dynamical RAM for           local pot:       0.00 MB

     Dynamical RAM for          nlocal pot:      24.27 MB

     Dynamical RAM for                qrad:      22.70 MB

     Dynamical RAM for          rho,v,vnew:      68.27 MB

     Dynamical RAM for               rhoin:      22.76 MB

     Dynamical RAM for            rho*nmix:     121.08 MB

     Dynamical RAM for           G-vectors:      14.60 MB

     Dynamical RAM for          h,s,v(r/c):       0.18 MB

     Dynamical RAM for          <psi|beta>:       0.16 MB

     Dynamical RAM for                 psi:      36.92 MB

     Dynamical RAM for                hpsi:      36.92 MB

     Dynamical RAM for                spsi:      36.92 MB

     Dynamical RAM for      wfcinit/wfcrot:      24.58 MB

     Dynamical RAM for           addusdens:     752.98 MB

     Estimated static dynamical RAM per process >     365.84 MB

     Estimated max dynamical RAM per process >       1.09 GB

     Estimated total dynamical RAM >      26.22 GB
     Generating pointlists ...
     new r_m :   0.0748 (alat units)  2.2451 (a.u.) for type    1
     new r_m :   0.0748 (alat units)  2.2451 (a.u.) for type    2

     Initial potential from superposition of free atoms

     starting charge  146.99440, renormalised to  147.00000
     Starting wfcs are  117 randomized atomic wfcs
     Checking if some PAW data can be deallocated... 
       PAW data deallocated on    2 nodes for type:  1
       PAW data deallocated on   22 nodes for type:  2

     total cpu time spent up to now is       70.8 secs

     Self-consistent Calculation

     iteration #  1     ecut=    80.00 Ry     beta= 0.70
     Davidson diagonalization with overlap
     ethr =  1.00E-02,  avg # of iterations =  3.0

     total cpu time spent up to now is      187.7 secs

     total energy              =   -5168.10543518 Ry
     Harris-Foulkes estimate   =   -5161.98901452 Ry
     estimated scf accuracy    <       6.52709818 Ry

     total magnetization       =     7.00 Bohr mag/cell
     absolute magnetization    =     7.00 Bohr mag/cell

     iteration #  2     ecut=    80.00 Ry     beta= 0.70
     Davidson diagonalization with overlap
     ethr =  4.44E-03,  avg # of iterations =  1.0

     total cpu time spent up to now is      299.8 secs

     total energy              =   -5168.96194864 Ry
     Harris-Foulkes estimate   =   -5168.29769551 Ry
     estimated scf accuracy    <       0.86048940 Ry

     total magnetization       =     3.00 Bohr mag/cell
     absolute magnetization    =     3.33 Bohr mag/cell

     iteration #  3     ecut=    80.00 Ry     beta= 0.70
     Davidson diagonalization with overlap
     ethr =  5.85E-04,  avg # of iterations =  3.0

     total cpu time spent up to now is      415.7 secs

     total energy              =   -5169.01621573 Ry
     Harris-Foulkes estimate   =   -5169.02424673 Ry
     estimated scf accuracy    <       0.05755768 Ry

     total magnetization       =     3.00 Bohr mag/cell
     absolute magnetization    =     3.10 Bohr mag/cell

     iteration #  4     ecut=    80.00 Ry     beta= 0.70
     Davidson diagonalization with overlap
     ethr =  3.92E-05,  avg # of iterations =  9.5

     total cpu time spent up to now is      552.3 secs

     total energy              =   -5169.02572944 Ry
     Harris-Foulkes estimate   =   -5169.03178859 Ry
     estimated scf accuracy    <       0.02986535 Ry

     total magnetization       =     3.00 Bohr mag/cell
     absolute magnetization    =     3.04 Bohr mag/cell

     iteration #  5     ecut=    80.00 Ry     beta= 0.70
     Davidson diagonalization with overlap
     ethr =  2.03E-05,  avg # of iterations =  2.5

     total cpu time spent up to now is      666.5 secs

     total energy              =   -5169.02343604 Ry
     Harris-Foulkes estimate   =   -5169.02710462 Ry
     estimated scf accuracy    <       0.01840714 Ry

     total magnetization       =     3.00 Bohr mag/cell
     absolute magnetization    =     3.06 Bohr mag/cell

     iteration #  6     ecut=    80.00 Ry     beta= 0.70
     Davidson diagonalization with overlap
     ethr =  1.25E-05,  avg # of iterations =  5.5

     total cpu time spent up to now is      782.4 secs

     total energy              =   -5169.01996062 Ry
     Harris-Foulkes estimate   =   -5169.02395817 Ry
     estimated scf accuracy    <       0.01349430 Ry

     total magnetization       =     3.00 Bohr mag/cell
     absolute magnetization    =     3.08 Bohr mag/cell

     iteration #  7     ecut=    80.00 Ry     beta= 0.70
     Davidson diagonalization with overlap
     ethr =  9.18E-06,  avg # of iterations = 15.0

     total cpu time spent up to now is      908.8 secs

     total energy              =   -5169.01814738 Ry
     Harris-Foulkes estimate   =   -5169.02072385 Ry
     estimated scf accuracy    <       0.00755818 Ry

     total magnetization       =     3.00 Bohr mag/cell
     absolute magnetization    =     3.08 Bohr mag/cell

     iteration #  8     ecut=    80.00 Ry     beta= 0.70
     Davidson diagonalization with overlap
     ethr =  5.14E-06,  avg # of iterations =  9.5

     total cpu time spent up to now is     1030.4 secs

     total energy              =   -5169.01803153 Ry
     Harris-Foulkes estimate   =   -5169.01850096 Ry
     estimated scf accuracy    <       0.00458867 Ry

     total magnetization       =     3.00 Bohr mag/cell
     absolute magnetization    =     3.10 Bohr mag/cell

     iteration #  9     ecut=    80.00 Ry     beta= 0.70
     Davidson diagonalization with overlap
     c_bands:  1 eigenvalues not converged
     ethr =  3.12E-06,  avg # of iterations = 15.5

     total cpu time spent up to now is     1157.7 secs

     total energy              =   -5169.01961463 Ry
     Harris-Foulkes estimate   =   -5169.01839955 Ry
     estimated scf accuracy    <       0.00210645 Ry

     total magnetization       =     3.00 Bohr mag/cell
     absolute magnetization    =     3.08 Bohr mag/cell

     iteration # 10     ecut=    80.00 Ry     beta= 0.70
     Davidson diagonalization with overlap
     ethr =  1.43E-06,  avg # of iterations =  8.0

     total cpu time spent up to now is     1277.3 secs

     total energy              =   -5169.02060815 Ry
     Harris-Foulkes estimate   =   -5169.01976476 Ry
     estimated scf accuracy    <       0.00163402 Ry

     total magnetization       =     3.00 Bohr mag/cell
     absolute magnetization    =     3.07 Bohr mag/cell

     iteration # 11     ecut=    80.00 Ry     beta= 0.70
     Davidson diagonalization with overlap
     ethr =  1.11E-06,  avg # of iterations = 10.0

     total cpu time spent up to now is     1399.0 secs

     total energy              =   -5169.02191986 Ry
     Harris-Foulkes estimate   =   -5169.02068829 Ry
     estimated scf accuracy    <       0.00078485 Ry

     total magnetization       =     3.00 Bohr mag/cell
     absolute magnetization    =     3.08 Bohr mag/cell

     iteration # 12     ecut=    80.00 Ry     beta= 0.70
     Davidson diagonalization with overlap
     ethr =  5.34E-07,  avg # of iterations = 12.0

     total cpu time spent up to now is     1524.1 secs

     total energy              =   -5169.02207602 Ry
     Harris-Foulkes estimate   =   -5169.02200244 Ry
     estimated scf accuracy    <       0.00085643 Ry

     total magnetization       =     3.00 Bohr mag/cell
     absolute magnetization    =     3.08 Bohr mag/cell

     iteration # 13     ecut=    80.00 Ry     beta= 0.70
     Davidson diagonalization with overlap
     ethr =  5.34E-07,  avg # of iterations =  2.0

     total cpu time spent up to now is     1636.9 secs

     total energy              =   -5169.02253328 Ry
     Harris-Foulkes estimate   =   -5169.02213236 Ry
     estimated scf accuracy    <       0.00032181 Ry

     total magnetization       =     3.00 Bohr mag/cell
     absolute magnetization    =     3.08 Bohr mag/cell

     iteration # 14     ecut=    80.00 Ry     beta= 0.70
     Davidson diagonalization with overlap
     ethr =  2.19E-07,  avg # of iterations =  9.5

     total cpu time spent up to now is     1758.5 secs

     total energy              =   -5169.02262262 Ry
     Harris-Foulkes estimate   =   -5169.02255830 Ry
     estimated scf accuracy    <       0.00028395 Ry

     total magnetization       =     3.00 Bohr mag/cell
     absolute magnetization    =     3.08 Bohr mag/cell

     iteration # 15     ecut=    80.00 Ry     beta= 0.70
     Davidson diagonalization with overlap
     ethr =  1.93E-07,  avg # of iterations =  3.0

     total cpu time spent up to now is     1871.3 secs

     total energy              =   -5169.02261838 Ry
     Harris-Foulkes estimate   =   -5169.02263432 Ry
     estimated scf accuracy    <       0.00012069 Ry

     total magnetization       =     3.00 Bohr mag/cell
     absolute magnetization    =     3.08 Bohr mag/cell

     iteration # 16     ecut=    80.00 Ry     beta= 0.70
     Davidson diagonalization with overlap
     ethr =  8.21E-08,  avg # of iterations = 11.5

     total cpu time spent up to now is     1992.1 secs

     total energy              =   -5169.02254858 Ry
     Harris-Foulkes estimate   =   -5169.02262269 Ry
     estimated scf accuracy    <       0.00007773 Ry

     total magnetization       =     3.00 Bohr mag/cell
     absolute magnetization    =     3.08 Bohr mag/cell

     iteration # 17     ecut=    80.00 Ry     beta= 0.70
     Davidson diagonalization with overlap
     ethr =  5.29E-08,  avg # of iterations = 10.5

     total cpu time spent up to now is     2112.2 secs

     total energy              =   -5169.02259723 Ry
     Harris-Foulkes estimate   =   -5169.02255691 Ry
     estimated scf accuracy    <       0.00004120 Ry

     total magnetization       =     3.00 Bohr mag/cell
     absolute magnetization    =     3.08 Bohr mag/cell

     iteration # 18     ecut=    80.00 Ry     beta= 0.70
     Davidson diagonalization with overlap
     ethr =  2.80E-08,  avg # of iterations =  1.5

     total cpu time spent up to now is     2222.8 secs

     total energy              =   -5169.02264640 Ry
     Harris-Foulkes estimate   =   -5169.02259891 Ry
     estimated scf accuracy    <       0.00001637 Ry

     total magnetization       =     3.00 Bohr mag/cell
     absolute magnetization    =     3.08 Bohr mag/cell

     iteration # 19     ecut=    80.00 Ry     beta= 0.70
     Davidson diagonalization with overlap
     ethr =  1.11E-08,  avg # of iterations =  8.5

     total cpu time spent up to now is     2341.3 secs

     total energy              =   -5169.02266821 Ry
     Harris-Foulkes estimate   =   -5169.02264775 Ry
     estimated scf accuracy    <       0.00001036 Ry

     total magnetization       =     3.00 Bohr mag/cell
     absolute magnetization    =     3.08 Bohr mag/cell

     iteration # 20     ecut=    80.00 Ry     beta= 0.70
     Davidson diagonalization with overlap
     ethr =  7.05E-09,  avg # of iterations =  3.5

     total cpu time spent up to now is     2456.0 secs

     total energy              =   -5169.02267927 Ry
     Harris-Foulkes estimate   =   -5169.02266969 Ry
     estimated scf accuracy    <       0.00001207 Ry

     total magnetization       =     3.00 Bohr mag/cell
     absolute magnetization    =     3.08 Bohr mag/cell

     iteration # 21     ecut=    80.00 Ry     beta= 0.70
     Davidson diagonalization with overlap
     ethr =  7.05E-09,  avg # of iterations =  1.5

     total cpu time spent up to now is     2566.6 secs

     total energy              =   -5169.02269090 Ry
     Harris-Foulkes estimate   =   -5169.02267972 Ry
     estimated scf accuracy    <       0.00000252 Ry

     total magnetization       =     3.00 Bohr mag/cell
     absolute magnetization    =     3.08 Bohr mag/cell

     iteration # 22     ecut=    80.00 Ry     beta= 0.70
     Davidson diagonalization with overlap
     ethr =  1.72E-09,  avg # of iterations =  6.5

     total cpu time spent up to now is     2684.2 secs

     total energy              =   -5169.02269068 Ry
     Harris-Foulkes estimate   =   -5169.02269171 Ry
     estimated scf accuracy    <       0.00000573 Ry

     total magnetization       =     3.00 Bohr mag/cell
     absolute magnetization    =     3.08 Bohr mag/cell

     iteration # 23     ecut=    80.00 Ry     beta= 0.70
     Davidson diagonalization with overlap
     ethr =  1.72E-09,  avg # of iterations =  2.0

     total cpu time spent up to now is     2795.5 secs

     total energy              =   -5169.02269296 Ry
     Harris-Foulkes estimate   =   -5169.02269105 Ry
     estimated scf accuracy    <       0.00000055 Ry

     total magnetization       =     3.00 Bohr mag/cell
     absolute magnetization    =     3.08 Bohr mag/cell

     iteration # 24     ecut=    80.00 Ry     beta= 0.70
     Davidson diagonalization with overlap
     ethr =  3.77E-10,  avg # of iterations =  3.0

     total cpu time spent up to now is     2907.8 secs

     total energy              =   -5169.02269516 Ry
     Harris-Foulkes estimate   =   -5169.02269300 Ry
     estimated scf accuracy    <       0.00000037 Ry

     total magnetization       =     3.00 Bohr mag/cell
     absolute magnetization    =     3.08 Bohr mag/cell

     iteration # 25     ecut=    80.00 Ry     beta= 0.70
     Davidson diagonalization with overlap
     ethr =  2.49E-10,  avg # of iterations =  4.0

     total cpu time spent up to now is     3023.7 secs

     total energy              =   -5169.02269502 Ry
     Harris-Foulkes estimate   =   -5169.02269525 Ry
     estimated scf accuracy    <       0.00000021 Ry

     total magnetization       =     3.00 Bohr mag/cell
     absolute magnetization    =     3.08 Bohr mag/cell

     iteration # 26     ecut=    80.00 Ry     beta= 0.70
     Davidson diagonalization with overlap
     ethr =  1.41E-10,  avg # of iterations =  2.5

     total cpu time spent up to now is     3136.5 secs

     total energy              =   -5169.02269493 Ry
     Harris-Foulkes estimate   =   -5169.02269506 Ry
     estimated scf accuracy    <       0.00000010 Ry

     total magnetization       =     3.00 Bohr mag/cell
     absolute magnetization    =     3.08 Bohr mag/cell

     iteration # 27     ecut=    80.00 Ry     beta= 0.70
     Davidson diagonalization with overlap
     ethr =  6.93E-11,  avg # of iterations =  2.0

     total cpu time spent up to now is     3247.8 secs

     total energy              =   -5169.02269475 Ry
     Harris-Foulkes estimate   =   -5169.02269493 Ry
     estimated scf accuracy    <       0.00000009 Ry

     total magnetization       =     3.00 Bohr mag/cell
     absolute magnetization    =     3.08 Bohr mag/cell

     iteration # 28     ecut=    80.00 Ry     beta= 0.70
     Davidson diagonalization with overlap
     ethr =  5.80E-11,  avg # of iterations =  3.0

     total cpu time spent up to now is     3361.3 secs

     total energy              =   -5169.02269465 Ry
     Harris-Foulkes estimate   =   -5169.02269476 Ry
     estimated scf accuracy    <       0.00000002 Ry

     total magnetization       =     3.00 Bohr mag/cell
     absolute magnetization    =     3.08 Bohr mag/cell

     iteration # 29     ecut=    80.00 Ry     beta= 0.70
     Davidson diagonalization with overlap
     ethr =  1.31E-11,  avg # of iterations =  3.5

     total cpu time spent up to now is     3477.3 secs

     total energy              =   -5169.02269437 Ry
     Harris-Foulkes estimate   =   -5169.02269466 Ry
     estimated scf accuracy    <       0.00000001 Ry

     total magnetization       =     3.00 Bohr mag/cell
     absolute magnetization    =     3.08 Bohr mag/cell

     iteration # 30     ecut=    80.00 Ry     beta= 0.70
     Davidson diagonalization with overlap
     ethr =  9.89E-12,  avg # of iterations =  4.0
 
     Magnetic moment per site:
     atom:    1    charge:    9.5808    magn:    0.0877    constr:    0.0000
     atom:    2    charge:    9.5815    magn:    0.0867    constr:    0.0000
     atom:    3    charge:    9.5820    magn:    0.0856    constr:    0.0000
     atom:    4    charge:    9.5816    magn:    0.0865    constr:    0.0000
     atom:    5    charge:    9.5814    magn:    0.0867    constr:    0.0000
     atom:    6    charge:    9.5808    magn:    0.0877    constr:    0.0000
     atom:    7    charge:    9.5811    magn:    0.0872    constr:    0.0000
     atom:    8    charge:   12.3515    magn:   -0.0041    constr:    0.0000
     atom:    9    charge:    9.5818    magn:    0.0858    constr:    0.0000
     atom:   10    charge:    9.5811    magn:    0.0872    constr:    0.0000
     atom:   11    charge:    9.5820    magn:    0.0856    constr:    0.0000
     atom:   12    charge:    9.5815    magn:    0.0864    constr:    0.0000
     atom:   13    charge:    9.5818    magn:    0.0858    constr:    0.0000

     total cpu time spent up to now is     3591.8 secs

     End of self-consistent calculation

 ------ SPIN UP ------------


          k = 0.0000 0.0000 0.0000 (163015 PWs)   bands (ev):

   -26.8583 -26.8580 -26.8578 -26.8574 -26.8571 -15.5999  -9.1356  -9.1355
    -9.1352  -7.8620  -7.8614  -7.8596  -7.8567  -7.8559  -7.8395  -7.8379
    -7.8363  -7.8356  -7.6516  -7.6514  -7.6509  -7.5797  -7.5517  -7.5514
    -7.5510  -7.5502  -7.3510  -7.3508  -7.3505  -7.2277  -7.2268  -7.2259
    -7.2245  -7.2233  -7.0223  -7.0217  -7.0212  -7.0203  -7.0200  -6.8740
    -6.8736  -6.8729  -6.8721  -6.8712  -6.8527  -6.8507  -6.8501  -6.6688
    -6.6673  -6.6662  -6.6640  -6.5351  -6.5338  -6.5329  -6.5317  -6.5311
    -6.4502  -6.4490  -6.4489  -6.4441  -6.4424  -6.4418  -6.4399  -6.2443
    -6.2439  -6.2429  -5.8116  -5.8101  -5.8094  -5.1098  -3.4146  -3.4103
    -3.4063  -3.3988  -3.3946  -2.1834  -2.1833  -2.1819  -1.2680  -1.2664
    -1.2639  -0.7920  -0.7866  -0.7808  -0.7799  -0.1730   0.4610   0.4625
     0.5179

     occupation numbers 
     1.0000   1.0000   1.0000   1.0000   1.0000   1.0000   1.0000   1.0000
     1.0000   1.0000   1.0000   1.0000   1.0000   1.0000   1.0000   1.0000
     1.0000   1.0000   1.0000   1.0000   1.0000   1.0000   1.0000   1.0000
     1.0000   1.0000   1.0000   1.0000   1.0000   1.0000   1.0000   1.0000
     1.0000   1.0000   1.0000   1.0000   1.0000   1.0000   1.0000   1.0000
     1.0000   1.0000   1.0000   1.0000   1.0000   1.0000   1.0000   1.0000
     1.0000   1.0000   1.0000   1.0000   1.0000   1.0000   1.0000   1.0000
     1.0000   1.0000   1.0000   1.0000   1.0000   1.0000   1.0000   1.0000
     1.0000   1.0000   1.0000   1.0000   1.0000   1.0000   1.0000   1.0000
     1.0000   1.0000   1.0000   0.0000   0.0000   0.0000   0.0000   0.0000
     0.0000   0.0000   0.0000   0.0000   0.0000   0.0000   0.0000   0.0000
     0.0000

 ------ SPIN DOWN ----------


          k = 0.0000 0.0000 0.0000 (163015 PWs)   bands (ev):

   -26.8580 -26.8579 -26.8579 -26.8579 -26.8578 -15.5869  -9.0675  -9.0672
    -9.0669  -7.7897  -7.7891  -7.7886  -7.7880  -7.7873  -7.7729  -7.7722
    -7.7717  -7.7715  -7.5660  -7.5658  -7.5653  -7.4780  -7.4779  -7.4776
    -7.4773  -7.4523  -7.2636  -7.2634  -7.2629  -7.1595  -7.1593  -7.1588
    -7.1584  -7.1578  -6.9612  -6.9609  -6.9608  -6.9602  -6.9598  -6.8261
    -6.8259  -6.8245  -6.8241  -6.8232  -6.8115  -6.8101  -6.8097  -6.6052
    -6.6045  -6.6042  -6.6036  -6.4763  -6.4755  -6.4750  -6.4743  -6.4739
    -6.3958  -6.3949  -6.3948  -6.3830  -6.3827  -6.3826  -6.3820  -6.1953
    -6.1950  -6.1945  -5.6854  -5.6853  -5.6851  -4.9586  -3.1756  -3.1743
    -3.1722  -3.1710  -3.1696  -2.0291  -2.0290  -2.0285  -1.0614  -1.0603
    -1.0591  -0.5230  -0.5204  -0.5186  -0.5167  -0.0329   0.6358   0.6379
     0.7094

     occupation numbers 
     1.0000   1.0000   1.0000   1.0000   1.0000   1.0000   1.0000   1.0000
     1.0000   1.0000   1.0000   1.0000   1.0000   1.0000   1.0000   1.0000
     1.0000   1.0000   1.0000   1.0000   1.0000   1.0000   1.0000   1.0000
     1.0000   1.0000   1.0000   1.0000   1.0000   1.0000   1.0000   1.0000
     1.0000   1.0000   1.0000   1.0000   1.0000   1.0000   1.0000   1.0000
     1.0000   1.0000   1.0000   1.0000   1.0000   1.0000   1.0000   1.0000
     1.0000   1.0000   1.0000   1.0000   1.0000   1.0000   1.0000   1.0000
     1.0000   1.0000   1.0000   1.0000   1.0000   1.0000   1.0000   1.0000
     1.0000   1.0000   1.0000   1.0000   1.0000   1.0000   0.4778   0.4447
     0.3903   0.3604   0.3269   0.0000   0.0000   0.0000   0.0000   0.0000
     0.0000   0.0000   0.0000   0.0000   0.0000   0.0000   0.0000   0.0000
     0.0000

     the Fermi energy is    -3.1765 ev

!    total energy              =   -5169.02269405 Ry
     Harris-Foulkes estimate   =   -5169.02269438 Ry
     estimated scf accuracy    <          8.8E-09 Ry

     total all-electron energy =   -170648.073356 Ry

     The total energy is the sum of the following terms:

     one-electron contribution =   -3713.62959064 Ry
     hartree contribution      =    1951.89918798 Ry
     xc contribution           =    -459.74987888 Ry
     ewald contribution        =     958.99408003 Ry
     one-center paw contrib.   =   -3906.53415899 Ry
      -> PAW hartree energy AE =      66.75467390 Ry
      -> PAW hartree energy PS =     -66.60745420 Ry
      -> PAW xc energy AE      =    -297.85703269 Ry
      -> PAW xc energy PS      =      35.21461061 Ry
      -> total E_H with PAW    =    1952.04640767 Ry
      -> total E_XC with PAW   =    -722.39230095 Ry
     smearing contrib. (-TS)   =      -0.00233355 Ry

     total magnetization       =     3.00 Bohr mag/cell
     absolute magnetization    =     3.08 Bohr mag/cell

     convergence has been achieved in  30 iterations

     Writing output data file ./tmp/ag12Bic.save/
 
     init_run     :     63.79s CPU     66.49s WALL (       1 calls)
     electrons    :   3401.70s CPU   3521.91s WALL (       1 calls)

     Called by init_run:
     wfcinit      :     17.29s CPU     17.61s WALL (       1 calls)
     wfcinit:atom :      0.11s CPU      0.14s WALL (       2 calls)
     wfcinit:wfcr :     16.92s CPU     17.14s WALL (       2 calls)
     potinit      :     12.12s CPU     12.64s WALL (       1 calls)
     hinit0       :      4.76s CPU      4.89s WALL (       1 calls)

     Called by electrons:
     c_bands      :   1028.98s CPU   1040.99s WALL (      30 calls)
     sum_band     :   1453.99s CPU   1508.14s WALL (      30 calls)
     v_of_rho     :    246.58s CPU    251.17s WALL (      31 calls)
     v_h          :     15.84s CPU     15.94s WALL (      31 calls)
     v_xc         :    230.73s CPU    235.23s WALL (      31 calls)
     newd         :    475.01s CPU    522.42s WALL (      31 calls)
     PAW_pot      :     39.56s CPU     39.99s WALL (      31 calls)
     mix_rho      :    141.28s CPU    143.73s WALL (      30 calls)

     Called by c_bands:
     init_us_2    :      5.50s CPU      5.60s WALL (     122 calls)
     regterg      :   1001.19s CPU   1012.99s WALL (      60 calls)

     Called by sum_band:
     sum_band:bec :      0.03s CPU      0.03s WALL (      60 calls)
     addusdens    :   1202.66s CPU   1255.50s WALL (      30 calls)

     Called by *egterg:
     h_psi        :    823.13s CPU    826.76s WALL (     415 calls)
     s_psi        :     52.21s CPU     52.32s WALL (     415 calls)
     g_psi        :      1.51s CPU      1.53s WALL (     353 calls)
     rdiaghg      :     11.18s CPU     11.81s WALL (     413 calls)
     regterg:over :     46.87s CPU     46.97s WALL (     353 calls)
     regterg:upda :     43.82s CPU     44.40s WALL (     353 calls)
     regterg:last :     12.17s CPU     12.21s WALL (      60 calls)
     rdiaghg:chol :      0.40s CPU      0.41s WALL (     413 calls)
     rdiaghg:inve :      0.31s CPU      0.32s WALL (     413 calls)
     rdiaghg:para :      0.96s CPU      0.97s WALL (     826 calls)

     Called by h_psi:
     h_psi:calbec :     35.73s CPU     35.86s WALL (     415 calls)
     vloc_psi     :    730.12s CPU    733.47s WALL (     415 calls)
     add_vuspsi   :     53.86s CPU     54.00s WALL (     415 calls)

     General routines
     calbec       :     46.73s CPU     46.88s WALL (     475 calls)
     fft          :    251.29s CPU    252.45s WALL (     644 calls)
     ffts         :     69.32s CPU     69.69s WALL (     741 calls)
     fftw         :    616.13s CPU    619.21s WALL (   15302 calls)
     interpolate  :     33.20s CPU     33.43s WALL (      62 calls)
 
     Parallel routines
     fft_scatt_xy :    141.08s CPU    141.91s WALL (   16687 calls)
     fft_scatt_yz :    290.56s CPU    291.83s WALL (   16687 calls)

     PAW routines
     PAW_pot      :     39.56s CPU     39.99s WALL (      31 calls)
 
     PWSCF        :  57m50.56s CPU  59m55.15s WALL

 
   This run was terminated on:  16:52:14   4Jan2021            

=------------------------------------------------------------------------------=
   JOB DONE.
=------------------------------------------------------------------------------=
