
     Program PWSCF v.6.5 starts on  4Jan2021 at 23:42: 5 

     This program is part of the open-source Quantum ESPRESSO suite
     for quantum simulation of materials; please cite
         "P. Giannozzi et al., J. Phys.:Condens. Matter 21 395502 (2009);
         "P. Giannozzi et al., J. Phys.:Condens. Matter 29 465901 (2017);
          URL http://www.quantum-espresso.org", 
     in publications or presentations arising from this work. More details at
     http://www.quantum-espresso.org/quote

     Parallel version (MPI & OpenMP), running on      24 processor cores
     Number of MPI processes:                24
     Threads/MPI process:                     1

     MPI processes distributed on     1 nodes
     R & G space division:  proc/nbgrp/npool/nimage =      24
     Waiting for input...
     Reading input from standard input

     Current dimensions of program PWSCF are:
     Max number of different atomic species (ntypx) = 10
     Max number of k-points (npk) =  40000
     Max angular momentum in pseudopotentials (lmaxx) =  3
               file Bi.pbe-dn-kjpaw_psl.1.0.0.UPF: wavefunction(s)  6P 5D renormalized

     gamma-point specific algorithms are used

     Subspace diagonalization in iterative solution of the eigenvalue problem:
     one sub-group per band group will be used
     scalapack distributed-memory algorithm (size of sub-group:  4*  4 procs)

 
     Parallelization info
     --------------------
     sticks:   dense  smooth     PW     G-vecs:    dense   smooth      PW
     Min        2660    1051    262               505924   125892   15746
     Max        2662    1054    264               505932   125906   15760
     Sum       63857   25265   6317             12142245  3021523  378069
 


     bravais-lattice index     =            1
     lattice parameter (alat)  =      42.0000  a.u.
     unit-cell volume          =   74088.0000 (a.u.)^3
     number of atoms/cell      =            1
     number of atomic types    =            1
     number of electrons       =        15.00
     number of Kohn-Sham states=           12
     kinetic-energy cutoff     =      45.0000  Ry
     charge density cutoff     =     455.0000  Ry
     convergence threshold     =      1.0E-06
     mixing beta               =       0.7000
     number of iterations used =            8  local-TF  mixing
     Exchange-correlation= SLA PW PBX PBC
                           (   1   4   3   4   0   0   0)

     celldm(1)=  42.000000  celldm(2)=   0.000000  celldm(3)=   0.000000
     celldm(4)=   0.000000  celldm(5)=   0.000000  celldm(6)=   0.000000

     crystal axes: (cart. coord. in units of alat)
               a(1) = (   1.000000   0.000000   0.000000 )  
               a(2) = (   0.000000   1.000000   0.000000 )  
               a(3) = (   0.000000   0.000000   1.000000 )  

     reciprocal axes: (cart. coord. in units 2 pi/alat)
               b(1) = (  1.000000  0.000000  0.000000 )  
               b(2) = (  0.000000  1.000000  0.000000 )  
               b(3) = (  0.000000  0.000000  1.000000 )  


     PseudoPot. # 1 for Bi read from file:
     ../../pseudo/Bi.pbe-dn-kjpaw_psl.1.0.0.UPF
     MD5 check sum: 266ded784ae3bc462508ed03f0f37963
     Pseudo is Projector augmented-wave + core cor, Zval = 15.0
     Generated using "atomic" code by A. Dal Corso v.6.2.2
     Shape of augmentation charge: PSQ
     Using radial grid of 1283 points,  6 beta functions with: 
                l(1) =   0
                l(2) =   0
                l(3) =   1
                l(4) =   1
                l(5) =   2
                l(6) =   2
     Q(r) pseudized with 0 coefficients 


     atomic species   valence    mass     pseudopotential
        Bi            15.00   208.98000     Bi( 1.00)

     Starting magnetic structure 
     atomic species   magnetization
        Bi           0.700

     No symmetry found


                                    s                        frac. trans.

      isym =  1     identity                                     

 cryst.   s( 1) = (     1          0          0      )
                  (     0          1          0      )
                  (     0          0          1      )

 cart.    s( 1) = (  1.0000000  0.0000000  0.0000000 )
                  (  0.0000000  1.0000000  0.0000000 )
                  (  0.0000000  0.0000000  1.0000000 )


     point group C_1 (1)    
     there are  1 classes
     the character table:

       E    
A      1.00

     the symmetry operations in each class and the name of the first element:

     E        1
          identity                                               

   Cartesian axes

     site n.     atom                  positions (alat units)
         1           Bi  tau(   1) = (   0.3781801   0.3754752   0.3425698  )

   Crystallographic axes

     site n.     atom                  positions (cryst. coord.)
         1           Bi  tau(   1) = (  0.3781801  0.3754752  0.3425698  )

     number of k points=     1  Fermi-Dirac smearing, width (Ry)=  0.0020
                       cart. coord. in units 2pi/alat
        k(    1) = (   0.0000000   0.0000000   0.0000000), wk =   1.0000000

                       cryst. coord.
        k(    1) = (   0.0000000   0.0000000   0.0000000), wk =   1.0000000

     Dense  grid:  6071123 G-vectors     FFT dimensions: ( 288, 288, 288)

     Smooth grid:  1510762 G-vectors     FFT dimensions: ( 180, 180, 180)

     Dynamical RAM for                 wfc:       1.44 MB

     Dynamical RAM for     wfc (w. buffer):       4.32 MB

     Dynamical RAM for           str. fact:       3.86 MB

     Dynamical RAM for           local pot:       0.00 MB

     Dynamical RAM for          nlocal pot:       2.16 MB

     Dynamical RAM for                qrad:      11.43 MB

     Dynamical RAM for          rho,v,vnew:      68.72 MB

     Dynamical RAM for               rhoin:      22.91 MB

     Dynamical RAM for            rho*nmix:     123.52 MB

     Dynamical RAM for           G-vectors:      14.95 MB

     Dynamical RAM for          h,s,v(r/c):       0.00 MB

     Dynamical RAM for          <psi|beta>:       0.00 MB

     Dynamical RAM for                 psi:       5.76 MB

     Dynamical RAM for                hpsi:       5.76 MB

     Dynamical RAM for                spsi:       5.76 MB

     Dynamical RAM for      wfcinit/wfcrot:       2.88 MB

     Dynamical RAM for           addusdens:     725.67 MB

     Estimated static dynamical RAM per process >     305.15 MB

     Estimated max dynamical RAM per process >       1.01 GB

     Estimated total dynamical RAM >      24.16 GB
     Generating pointlists ...
     new r_m :   0.4125 (alat units) 17.3250 (a.u.) for type    1

     Initial potential from superposition of free atoms

     starting charge   14.99919, renormalised to   15.00000
     Starting wfcs are    9 randomized atomic wfcs +    3 random wfcs
     Checking if some PAW data can be deallocated... 

     total cpu time spent up to now is       37.5 secs

     Self-consistent Calculation

     iteration #  1     ecut=    45.00 Ry     beta= 0.70
     Davidson diagonalization with overlap
     ethr =  1.00E-02,  avg # of iterations =  6.5

     total cpu time spent up to now is       89.5 secs

     total energy              =    -906.10267947 Ry
     Harris-Foulkes estimate   =    -905.42691970 Ry
     estimated scf accuracy    <       0.82886798 Ry

     total magnetization       =     3.00 Bohr mag/cell
     absolute magnetization    =     3.00 Bohr mag/cell

     iteration #  2     ecut=    45.00 Ry     beta= 0.70
     Davidson diagonalization with overlap
     ethr =  5.53E-03,  avg # of iterations =  1.0

     total cpu time spent up to now is      138.7 secs

     total energy              =    -906.17647706 Ry
     Harris-Foulkes estimate   =    -906.10833633 Ry
     estimated scf accuracy    <       0.07724806 Ry

     total magnetization       =     3.00 Bohr mag/cell
     absolute magnetization    =     3.00 Bohr mag/cell

     iteration #  3     ecut=    45.00 Ry     beta= 0.70
     Davidson diagonalization with overlap
     ethr =  5.15E-04,  avg # of iterations =  1.0

     total cpu time spent up to now is      188.1 secs

     total energy              =    -906.17959831 Ry
     Harris-Foulkes estimate   =    -906.17947437 Ry
     estimated scf accuracy    <       0.00020151 Ry

     total magnetization       =     3.00 Bohr mag/cell
     absolute magnetization    =     3.00 Bohr mag/cell

     iteration #  4     ecut=    45.00 Ry     beta= 0.70
     Davidson diagonalization with overlap
     c_bands:  1 eigenvalues not converged
     c_bands:  1 eigenvalues not converged
     ethr =  1.34E-06,  avg # of iterations = 20.0

     total cpu time spent up to now is      247.6 secs

     total energy              =    -906.18079798 Ry
     Harris-Foulkes estimate   =    -906.17976046 Ry
     estimated scf accuracy    <       0.00005499 Ry

     total magnetization       =     3.00 Bohr mag/cell
     absolute magnetization    =     3.00 Bohr mag/cell

     iteration #  5     ecut=    45.00 Ry     beta= 0.70
     Davidson diagonalization with overlap
     ethr =  3.67E-07,  avg # of iterations = 12.5

     total cpu time spent up to now is      301.8 secs

     total energy              =    -906.18099026 Ry
     Harris-Foulkes estimate   =    -906.18082133 Ry
     estimated scf accuracy    <       0.00002047 Ry

     total magnetization       =     3.00 Bohr mag/cell
     absolute magnetization    =     3.00 Bohr mag/cell

     iteration #  6     ecut=    45.00 Ry     beta= 0.70
     Davidson diagonalization with overlap
     ethr =  1.36E-07,  avg # of iterations = 11.0

     total cpu time spent up to now is      355.1 secs

     total energy              =    -906.18057335 Ry
     Harris-Foulkes estimate   =    -906.18099092 Ry
     estimated scf accuracy    <       0.00000886 Ry

     total magnetization       =     3.00 Bohr mag/cell
     absolute magnetization    =     3.00 Bohr mag/cell

     iteration #  7     ecut=    45.00 Ry     beta= 0.70
     Davidson diagonalization with overlap
     ethr =  5.91E-08,  avg # of iterations =  9.0

     total cpu time spent up to now is      407.6 secs

     total energy              =    -906.18036374 Ry
     Harris-Foulkes estimate   =    -906.18057604 Ry
     estimated scf accuracy    <       0.00000729 Ry

     total magnetization       =     3.00 Bohr mag/cell
     absolute magnetization    =     3.00 Bohr mag/cell

     iteration #  8     ecut=    45.00 Ry     beta= 0.70
     Davidson diagonalization with overlap
     ethr =  4.86E-08,  avg # of iterations =  6.0

     total cpu time spent up to now is      458.6 secs

     total energy              =    -906.17999747 Ry
     Harris-Foulkes estimate   =    -906.18036452 Ry
     estimated scf accuracy    <       0.00000587 Ry

     total magnetization       =     3.00 Bohr mag/cell
     absolute magnetization    =     3.00 Bohr mag/cell

     iteration #  9     ecut=    45.00 Ry     beta= 0.70
     Davidson diagonalization with overlap
     ethr =  3.91E-08,  avg # of iterations =  8.0

     total cpu time spent up to now is      511.6 secs

     total energy              =    -906.17998946 Ry
     Harris-Foulkes estimate   =    -906.18000073 Ry
     estimated scf accuracy    <       0.00000174 Ry

     total magnetization       =     3.00 Bohr mag/cell
     absolute magnetization    =     3.00 Bohr mag/cell

     iteration # 10     ecut=    45.00 Ry     beta= 0.70
     Davidson diagonalization with overlap
     ethr =  1.16E-08,  avg # of iterations =  1.5
 
     Magnetic moment per site:
     atom:    1    charge:   15.0000    magn:    3.0000    constr:    0.0000

     total cpu time spent up to now is      554.2 secs

     End of self-consistent calculation

 ------ SPIN UP ------------


          k = 0.0000 0.0000 0.0000 (189035 PWs)   bands (ev):

   -26.9219 -26.9219 -26.9219 -26.9219 -26.9219 -14.9221  -5.1355  -5.1355
    -5.1354  -0.7742  -0.1853   0.0276

     occupation numbers 
     1.0000   1.0000   1.0000   1.0000   1.0000   1.0000   1.0000   1.0000
     1.0000   0.0000   0.0000   0.0000

 ------ SPIN DOWN ----------


          k = 0.0000 0.0000 0.0000 (189035 PWs)   bands (ev):

   -26.6107 -26.6107 -26.6106 -26.6106 -26.6106 -13.3720  -3.3187  -3.3187
    -3.3186  -0.2449  -0.0043   0.0825

     occupation numbers 
     1.0000   1.0000   1.0000   1.0000   1.0000   1.0000   0.0000   0.0000
     0.0000   0.0000   0.0000   0.0000

     the Fermi energy is    -4.0995 ev

!    total energy              =    -906.18001365 Ry
     Harris-Foulkes estimate   =    -906.17998958 Ry
     estimated scf accuracy    <       0.00000066 Ry

     total all-electron energy =    -43061.638010 Ry

     The total energy is the sum of the following terms:

     one-electron contribution =    -210.73671534 Ry
     hartree contribution      =     108.66437764 Ry
     xc contribution           =     -32.36487824 Ry
     ewald contribution        =     -15.19980793 Ry
     one-center paw contrib.   =    -756.54298979 Ry
      -> PAW hartree energy AE =     112.24344234 Ry
      -> PAW hartree energy PS =    -111.93085718 Ry
      -> PAW xc energy AE      =    -788.65467839 Ry
      -> PAW xc energy PS      =      31.79910344 Ry
      -> total E_H with PAW    =     108.97696280 Ry
      -> total E_XC with PAW   =    -789.22045318 Ry
     smearing contrib. (-TS)   =      -0.00000000 Ry

     total magnetization       =     3.00 Bohr mag/cell
     absolute magnetization    =     3.00 Bohr mag/cell

     convergence has been achieved in  10 iterations

     Writing output data file ./tmp/bismuto.save/
 
     init_run     :     33.49s CPU     35.20s WALL (       1 calls)
     electrons    :    495.18s CPU    517.54s WALL (       1 calls)

     Called by init_run:
     wfcinit      :      1.56s CPU      1.59s WALL (       1 calls)
     wfcinit:atom :      0.01s CPU      0.01s WALL (       2 calls)
     wfcinit:wfcr :      1.52s CPU      1.54s WALL (       2 calls)
     potinit      :      9.65s CPU     10.16s WALL (       1 calls)
     hinit0       :      2.67s CPU      2.86s WALL (       1 calls)

     Called by electrons:
     c_bands      :     62.14s CPU     62.92s WALL (      10 calls)
     sum_band     :    207.20s CPU    216.84s WALL (      10 calls)
     v_of_rho     :     77.98s CPU     80.75s WALL (      11 calls)
     v_h          :      5.40s CPU      5.43s WALL (      11 calls)
     v_xc         :     72.58s CPU     75.32s WALL (      11 calls)
     newd         :     80.44s CPU     89.15s WALL (      11 calls)
     PAW_pot      :      6.31s CPU      6.44s WALL (      11 calls)
     mix_rho      :     62.43s CPU     63.28s WALL (      10 calls)

     Called by c_bands:
     init_us_2    :      0.34s CPU      0.35s WALL (      42 calls)
     regterg      :     61.17s CPU     61.92s WALL (      20 calls)

     Called by sum_band:
     sum_band:bec :      0.00s CPU      0.00s WALL (      20 calls)
     addusdens    :    183.96s CPU    193.33s WALL (      10 calls)

     Called by *egterg:
     h_psi        :     53.24s CPU     53.53s WALL (     175 calls)
     s_psi        :      0.81s CPU      0.81s WALL (     175 calls)
     g_psi        :      0.15s CPU      0.16s WALL (     153 calls)
     rdiaghg      :      0.66s CPU      0.68s WALL (     173 calls)
     regterg:over :      2.83s CPU      2.84s WALL (     153 calls)
     regterg:upda :      3.03s CPU      3.08s WALL (     153 calls)
     regterg:last :      0.74s CPU      0.74s WALL (      24 calls)
     rdiaghg:chol :      0.06s CPU      0.06s WALL (     173 calls)
     rdiaghg:inve :      0.02s CPU      0.02s WALL (     173 calls)
     rdiaghg:para :      0.06s CPU      0.06s WALL (     346 calls)

     Called by h_psi:
     h_psi:calbec :      0.82s CPU      0.82s WALL (     175 calls)
     vloc_psi     :     51.37s CPU     51.64s WALL (     175 calls)
     add_vuspsi   :      0.79s CPU      0.80s WALL (     175 calls)

     General routines
     calbec       :      0.91s CPU      0.92s WALL (     195 calls)
     fft          :     88.27s CPU     89.07s WALL (     224 calls)
     ffts         :     34.93s CPU     35.08s WALL (     387 calls)
     fftw         :     39.92s CPU     40.15s WALL (    1048 calls)
     interpolate  :     11.38s CPU     11.51s WALL (      22 calls)
 
     Parallel routines
     fft_scatt_xy :     18.24s CPU     18.35s WALL (    1659 calls)
     fft_scatt_yz :     67.70s CPU     68.17s WALL (    1659 calls)

     PAW routines
     PAW_pot      :      6.31s CPU      6.44s WALL (      11 calls)
 
     PWSCF        :   8m51.26s CPU   9m16.57s WALL

 
   This run was terminated on:  23:51:22   4Jan2021            

=------------------------------------------------------------------------------=
   JOB DONE.
=------------------------------------------------------------------------------=
