
     Program PWSCF v.6.5 starts on  5Jan2021 at  0: 5:19 

     This program is part of the open-source Quantum ESPRESSO suite
     for quantum simulation of materials; please cite
         "P. Giannozzi et al., J. Phys.:Condens. Matter 21 395502 (2009);
         "P. Giannozzi et al., J. Phys.:Condens. Matter 29 465901 (2017);
          URL http://www.quantum-espresso.org", 
     in publications or presentations arising from this work. More details at
     http://www.quantum-espresso.org/quote

     Parallel version (MPI & OpenMP), running on      24 processor cores
     Number of MPI processes:                24
     Threads/MPI process:                     1

     MPI processes distributed on     1 nodes
     R & G space division:  proc/nbgrp/npool/nimage =      24
     Waiting for input...
     Reading input from standard input

     Current dimensions of program PWSCF are:
     Max number of different atomic species (ntypx) = 10
     Max number of k-points (npk) =  40000
     Max angular momentum in pseudopotentials (lmaxx) =  3

     Atomic positions and unit cell read from directory:
     ./tmp/bismuto.save/                                                                                                                                                                                                                                             
 
               file Bi.pbe-dn-kjpaw_psl.1.0.0.UPF: wavefunction(s)  6P 5D renormalized

     gamma-point specific algorithms are used

     Subspace diagonalization in iterative solution of the eigenvalue problem:
     one sub-group per band group will be used
     scalapack distributed-memory algorithm (size of sub-group:  4*  4 procs)

 
     Parallelization info
     --------------------
     sticks:   dense  smooth     PW     G-vecs:    dense   smooth      PW
     Min        2660    1051    262               505924   125892   15746
     Max        2662    1054    264               505932   125906   15760
     Sum       63857   25265   6317             12142245  3021523  378069
 


     bravais-lattice index     =            1
     lattice parameter (alat)  =      42.0000  a.u.
     unit-cell volume          =   74088.0000 (a.u.)^3
     number of atoms/cell      =            1
     number of atomic types    =            1
     number of electrons       =        15.00
     number of Kohn-Sham states=           12
     kinetic-energy cutoff     =      45.0000  Ry
     charge density cutoff     =     455.0000  Ry
     Exchange-correlation= SLA PW PBX PBC
                           (   1   4   3   4   0   0   0)

     celldm(1)=  42.000000  celldm(2)=   0.000000  celldm(3)=   0.000000
     celldm(4)=   0.000000  celldm(5)=   0.000000  celldm(6)=   0.000000

     crystal axes: (cart. coord. in units of alat)
               a(1) = (   1.000000   0.000000   0.000000 )  
               a(2) = (   0.000000   1.000000   0.000000 )  
               a(3) = (   0.000000   0.000000   1.000000 )  

     reciprocal axes: (cart. coord. in units 2 pi/alat)
               b(1) = (  1.000000  0.000000  0.000000 )  
               b(2) = (  0.000000  1.000000  0.000000 )  
               b(3) = (  0.000000  0.000000  1.000000 )  


     PseudoPot. # 1 for Bi read from file:
     ../../pseudo/Bi.pbe-dn-kjpaw_psl.1.0.0.UPF
     MD5 check sum: 266ded784ae3bc462508ed03f0f37963
     Pseudo is Projector augmented-wave + core cor, Zval = 15.0
     Generated using "atomic" code by A. Dal Corso v.6.2.2
     Shape of augmentation charge: PSQ
     Using radial grid of 1283 points,  6 beta functions with: 
                l(1) =   0
                l(2) =   0
                l(3) =   1
                l(4) =   1
                l(5) =   2
                l(6) =   2
     Q(r) pseudized with 0 coefficients 


     atomic species   valence    mass     pseudopotential
        Bi            15.00   208.98000     Bi( 1.00)

     Starting magnetic structure 
     atomic species   magnetization
        Bi           0.700

     No symmetry found


                                    s                        frac. trans.

      isym =  1     identity                                     

 cryst.   s( 1) = (     1          0          0      )
                  (     0          1          0      )
                  (     0          0          1      )

 cart.    s( 1) = (  1.0000000  0.0000000  0.0000000 )
                  (  0.0000000  1.0000000  0.0000000 )
                  (  0.0000000  0.0000000  1.0000000 )


     point group C_1 (1)    
     there are  1 classes
     the character table:

       E    
A      1.00

     the symmetry operations in each class and the name of the first element:

     E        1
          identity                                               

   Cartesian axes

     site n.     atom                  positions (alat units)
         1           Bi  tau(   1) = (   0.3781801   0.3754752   0.3425698  )

   Crystallographic axes

     site n.     atom                  positions (cryst. coord.)
         1           Bi  tau(   1) = (  0.3781801  0.3754752  0.3425698  )

     number of k points=     1  Fermi-Dirac smearing, width (Ry)=  0.0020
                       cart. coord. in units 2pi/alat
        k(    1) = (   0.0000000   0.0000000   0.0000000), wk =   1.0000000

                       cryst. coord.
        k(    1) = (   0.0000000   0.0000000   0.0000000), wk =   1.0000000

     Dense  grid:  6071123 G-vectors     FFT dimensions: ( 288, 288, 288)

     Smooth grid:  1510762 G-vectors     FFT dimensions: ( 180, 180, 180)

     Dynamical RAM for                 wfc:       1.44 MB

     Dynamical RAM for     wfc (w. buffer):       1.44 MB

     Dynamical RAM for           str. fact:       3.86 MB

     Dynamical RAM for           local pot:       0.00 MB

     Dynamical RAM for          nlocal pot:       2.16 MB

     Dynamical RAM for                qrad:      11.43 MB

     Dynamical RAM for          rho,v,vnew:      68.72 MB

     Dynamical RAM for           G-vectors:      14.95 MB

     Dynamical RAM for          h,s,v(r/c):       0.00 MB

     Dynamical RAM for          <psi|beta>:       0.00 MB

     Dynamical RAM for                 psi:       5.76 MB

     Dynamical RAM for                hpsi:       5.76 MB

     Dynamical RAM for                spsi:       5.76 MB

     Dynamical RAM for      wfcinit/wfcrot:       2.88 MB

     Dynamical RAM for           addusdens:     725.67 MB

     Estimated static dynamical RAM per process >     155.85 MB

     Estimated max dynamical RAM per process >     881.51 MB

     Estimated total dynamical RAM >      20.66 GB
     Generating pointlists ...
     new r_m :   0.4125 (alat units) 17.3250 (a.u.) for type    1

     The potential is recalculated from file :
     ./tmp/bismuto.save/charge-density

     Starting wfcs are    9 randomized atomic wfcs +    3 random wfcs
     Checking if some PAW data can be deallocated... 

     Band Structure Calculation
     Davidson diagonalization with overlap

     Computing kpt #:     1  of     2
     total cpu time spent up to now is       61.2 secs

     Computing kpt #:     2  of     2
     c_bands:  1 eigenvalues not converged
     total cpu time spent up to now is       98.3 secs

     ethr =  6.67E-09,  avg # of iterations = 99.0

     total cpu time spent up to now is       98.3 secs

     End of band structure calculation

 ------ SPIN UP ------------


          k = 0.0000 0.0000 0.0000 (189035 PWs)   bands (ev):

   -26.9233 -26.9233 -26.9233 -26.9232 -26.9232 -14.9233  -5.1362  -5.1362
    -5.1362  -0.7788  -0.0914   0.0556

     occupation numbers 
     1.0000   1.0000   1.0000   1.0000   1.0000   1.0000   1.0000   1.0000
     1.0000   0.0000   0.0000   0.0000

 ------ SPIN DOWN ----------


          k = 0.0000 0.0000 0.0000 (189035 PWs)   bands (ev):

   -26.6123 -26.6122 -26.6122 -26.6122 -26.6122 -13.3731  -3.3181  -3.3181
    -3.3180  -0.1935   0.0636   0.1441

     occupation numbers 
     1.0000   1.0000   1.0000   1.0000   1.0000   1.0000   0.0000   0.0000
     0.0000   0.0000   0.0000   0.0000

     the Fermi energy is    -4.0478 ev

     Writing output data file ./tmp/bismuto.save/
 
     init_run     :     31.25s CPU     33.31s WALL (       1 calls)
     electrons    :     62.15s CPU     62.62s WALL (       1 calls)

     Called by init_run:
     wfcinit      :      0.00s CPU      0.01s WALL (       1 calls)
     wfcinit:atom :      0.01s CPU      0.01s WALL (       2 calls)
     wfcinit:wfcr :      1.54s CPU      1.57s WALL (       2 calls)
     potinit      :      9.38s CPU     10.25s WALL (       1 calls)
     hinit0       :      2.73s CPU      2.91s WALL (       1 calls)

     Called by electrons:
     c_bands      :     62.15s CPU     62.61s WALL (       1 calls)
     v_of_rho     :      6.96s CPU      7.34s WALL (       1 calls)
     v_h          :      0.52s CPU      0.52s WALL (       1 calls)
     v_xc         :      6.44s CPU      6.82s WALL (       1 calls)
     newd         :      7.29s CPU      8.09s WALL (       1 calls)
     PAW_pot      :      0.58s CPU      0.63s WALL (       1 calls)

     Called by c_bands:
     init_us_2    :      0.02s CPU      0.02s WALL (       2 calls)
     regterg      :     60.51s CPU     60.93s WALL (      10 calls)

     Called by sum_band:

     Called by *egterg:
     h_psi        :     51.82s CPU     52.13s WALL (     210 calls)
     s_psi        :      0.83s CPU      0.84s WALL (     210 calls)
     g_psi        :      0.16s CPU      0.16s WALL (     198 calls)
     rdiaghg      :      0.76s CPU      0.77s WALL (     200 calls)
     regterg:over :      3.03s CPU      3.04s WALL (     198 calls)
     regterg:upda :      3.46s CPU      3.48s WALL (     198 calls)
     regterg:last :      1.10s CPU      1.10s WALL (      22 calls)
     rdiaghg:chol :      0.07s CPU      0.07s WALL (     200 calls)
     rdiaghg:inve :      0.02s CPU      0.02s WALL (     200 calls)
     rdiaghg:para :      0.06s CPU      0.06s WALL (     400 calls)

     Called by h_psi:
     h_psi:calbec :      0.88s CPU      0.90s WALL (     210 calls)
     vloc_psi     :     49.90s CPU     50.19s WALL (     210 calls)
     add_vuspsi   :      0.82s CPU      0.82s WALL (     210 calls)

     General routines
     calbec       :      0.88s CPU      0.90s WALL (     210 calls)
     fft          :      6.88s CPU      7.11s WALL (      18 calls)
     ffts         :      0.20s CPU      0.21s WALL (       2 calls)
     fftw         :     34.79s CPU     35.00s WALL (     844 calls)
     interpolate  :      1.07s CPU      1.13s WALL (       2 calls)
     davcio       :      0.00s CPU      0.01s WALL (       4 calls)
 
     Parallel routines
     fft_scatt_xy :      6.42s CPU      6.46s WALL (     864 calls)
     fft_scatt_yz :     11.56s CPU     11.72s WALL (     864 calls)

     PAW routines
     PAW_pot      :      0.58s CPU      0.63s WALL (       1 calls)
 
     PWSCF        :   1m35.70s CPU   1m38.55s WALL

 
   This run was terminated on:   0: 6:57   5Jan2021            

=------------------------------------------------------------------------------=
   JOB DONE.
=------------------------------------------------------------------------------=
