
     Program PWSCF v.6.5 starts on 19Jun2020 at 15:24:19 

     This program is part of the open-source Quantum ESPRESSO suite
     for quantum simulation of materials; please cite
         "P. Giannozzi et al., J. Phys.:Condens. Matter 21 395502 (2009);
         "P. Giannozzi et al., J. Phys.:Condens. Matter 29 465901 (2017);
          URL http://www.quantum-espresso.org", 
     in publications or presentations arising from this work. More details at
     http://www.quantum-espresso.org/quote

     Parallel version (MPI & OpenMP), running on      24 processor cores
     Number of MPI processes:                24
     Threads/MPI process:                     1

     MPI processes distributed on     1 nodes
     R & G space division:  proc/nbgrp/npool/nimage =      24
     Waiting for input...
     Reading input from standard input

     Current dimensions of program PWSCF are:
     Max number of different atomic species (ntypx) = 10
     Max number of k-points (npk) =  40000
     Max angular momentum in pseudopotentials (lmaxx) =  3
               file Ag.pbe-dn-kjpaw_psl.0.1.UPF: wavefunction(s)  5S 5P 4D renormalized
               file Bi.pbe-dn-kjpaw_psl.1.0.0.UPF: wavefunction(s)  6P 5D renormalized

     gamma-point specific algorithms are used

     Subspace diagonalization in iterative solution of the eigenvalue problem:
     one sub-group per band group will be used
     scalapack distributed-memory algorithm (size of sub-group:  4*  4 procs)

 
     Parallelization info
     --------------------
     sticks:   dense  smooth     PW     G-vecs:    dense   smooth      PW
     Min         894     894    223                98702    98702   12352
     Max         896     896    228                98712    98712   12356
     Sum       21465   21465   5385              2368925  2368925  296459
 


     bravais-lattice index     =            1
     lattice parameter (alat)  =      30.0000  a.u.
     unit-cell volume          =   27000.0000 (a.u.)^3
     number of atoms/cell      =           13
     number of atomic types    =            2
     number of electrons       =       147.00
     number of Kohn-Sham states=           89
     kinetic-energy cutoff     =      75.0000  Ry
     charge density cutoff     =     300.0000  Ry
     convergence threshold     =      1.0E-08
     mixing beta               =       0.7000
     number of iterations used =            8  local-TF  mixing
     Exchange-correlation= SLA PW PBX PBC
                           (   1   4   3   4   0   0   0)

     celldm(1)=  30.000000  celldm(2)=   0.000000  celldm(3)=   0.000000
     celldm(4)=   0.000000  celldm(5)=   0.000000  celldm(6)=   0.000000

     crystal axes: (cart. coord. in units of alat)
               a(1) = (   1.000000   0.000000   0.000000 )  
               a(2) = (   0.000000   1.000000   0.000000 )  
               a(3) = (   0.000000   0.000000   1.000000 )  

     reciprocal axes: (cart. coord. in units 2 pi/alat)
               b(1) = (  1.000000  0.000000  0.000000 )  
               b(2) = (  0.000000  1.000000  0.000000 )  
               b(3) = (  0.000000  0.000000  1.000000 )  


     PseudoPot. # 1 for Ag read from file:
     ../../pseudo/Ag.pbe-dn-kjpaw_psl.0.1.UPF
     MD5 check sum: 2edc915f30f03476250949c796a6a376
     Pseudo is Projector augmented-wave + core cor, Zval = 11.0
     Generated using "atomic" code by A. Dal Corso v.5.0.2 svn rev. 9415
     Shape of augmentation charge: PSQ
     Using radial grid of 1237 points,  6 beta functions with: 
                l(1) =   0
                l(2) =   0
                l(3) =   1
                l(4) =   1
                l(5) =   2
                l(6) =   2
     Q(r) pseudized with 0 coefficients 


     PseudoPot. # 2 for Bi read from file:
     ../../pseudo/Bi.pbe-dn-kjpaw_psl.1.0.0.UPF
     MD5 check sum: 266ded784ae3bc462508ed03f0f37963
     Pseudo is Projector augmented-wave + core cor, Zval = 15.0
     Generated using "atomic" code by A. Dal Corso v.6.2.2
     Shape of augmentation charge: PSQ
     Using radial grid of 1283 points,  6 beta functions with: 
                l(1) =   0
                l(2) =   0
                l(3) =   1
                l(4) =   1
                l(5) =   2
                l(6) =   2
     Q(r) pseudized with 0 coefficients 


     atomic species   valence    mass     pseudopotential
        Ag            11.00   107.87000     Ag( 1.00)
        Bi            15.00   208.98000     Bi( 1.00)

     Starting magnetic structure 
     atomic species   magnetization
        Ag           0.700
        Bi           0.700

     No symmetry found


                                    s                        frac. trans.

      isym =  1     identity                                     

 cryst.   s( 1) = (     1          0          0      )
                  (     0          1          0      )
                  (     0          0          1      )

 cart.    s( 1) = (  1.0000000  0.0000000  0.0000000 )
                  (  0.0000000  1.0000000  0.0000000 )
                  (  0.0000000  0.0000000  1.0000000 )


     point group C_1 (1)    
     there are  1 classes
     the character table:

       E    
A      1.00

     the symmetry operations in each class and the name of the first element:

     E        1
          identity                                               

   Cartesian axes

     site n.     atom                  positions (alat units)
         1           Ag  tau(   1) = (   0.4118422   0.4085678   0.5529229  )
         2           Ag  tau(   2) = (   0.4430282   0.5805310   0.6293956  )
         3           Ag  tau(   3) = (   0.7055321   0.4857940   0.4975646  )
         4           Ag  tau(   4) = (   0.5793799   0.4472759   0.6354296  )
         5           Ag  tau(   5) = (   0.6158975   0.4708066   0.3298261  )
         6           Ag  tau(   6) = (   0.6470903   0.6427637   0.4063542  )
         7           Ag  tau(   7) = (   0.4343951   0.4230673   0.3640398  )
         8           Bi  tau(   8) = (   0.5294521   0.5256652   0.4795977  )
         9           Ag  tau(   9) = (   0.4847657   0.7013105   0.4877927  )
        10           Ag  tau(  10) = (   0.6244935   0.6282725   0.5951804  )
        11           Ag  tau(  11) = (   0.3533649   0.5655176   0.4616405  )
        12           Ag  tau(  12) = (   0.4795117   0.6040561   0.3237906  )
        13           Ag  tau(  13) = (   0.5741053   0.3500038   0.4714732  )

   Crystallographic axes

     site n.     atom                  positions (cryst. coord.)
         1           Ag  tau(   1) = (  0.4118422  0.4085678  0.5529229  )
         2           Ag  tau(   2) = (  0.4430282  0.5805310  0.6293956  )
         3           Ag  tau(   3) = (  0.7055321  0.4857940  0.4975646  )
         4           Ag  tau(   4) = (  0.5793799  0.4472759  0.6354296  )
         5           Ag  tau(   5) = (  0.6158975  0.4708066  0.3298261  )
         6           Ag  tau(   6) = (  0.6470903  0.6427637  0.4063542  )
         7           Ag  tau(   7) = (  0.4343951  0.4230673  0.3640398  )
         8           Bi  tau(   8) = (  0.5294521  0.5256652  0.4795977  )
         9           Ag  tau(   9) = (  0.4847657  0.7013105  0.4877927  )
        10           Ag  tau(  10) = (  0.6244935  0.6282725  0.5951804  )
        11           Ag  tau(  11) = (  0.3533649  0.5655176  0.4616405  )
        12           Ag  tau(  12) = (  0.4795117  0.6040561  0.3237906  )
        13           Ag  tau(  13) = (  0.5741053  0.3500038  0.4714732  )

     number of k points=     1  Fermi-Dirac smearing, width (Ry)=  0.0007
                       cart. coord. in units 2pi/alat
        k(    1) = (   0.0000000   0.0000000   0.0000000), wk =   1.0000000

                       cryst. coord.
        k(    1) = (   0.0000000   0.0000000   0.0000000), wk =   1.0000000

     Dense  grid:  1184463 G-vectors     FFT dimensions: ( 180, 180, 180)

     Dynamical RAM for                 wfc:       8.38 MB

     Dynamical RAM for     wfc (w. buffer):      25.13 MB

     Dynamical RAM for           str. fact:       1.51 MB

     Dynamical RAM for           local pot:       0.00 MB

     Dynamical RAM for          nlocal pot:      22.03 MB

     Dynamical RAM for                qrad:      13.25 MB

     Dynamical RAM for          rho,v,vnew:      16.38 MB

     Dynamical RAM for               rhoin:       5.46 MB

     Dynamical RAM for            rho*nmix:      24.10 MB

     Dynamical RAM for           G-vectors:       3.20 MB

     Dynamical RAM for          h,s,v(r/c):       0.18 MB

     Dynamical RAM for          <psi|beta>:       0.16 MB

     Dynamical RAM for                 psi:      33.51 MB

     Dynamical RAM for                hpsi:      33.51 MB

     Dynamical RAM for                spsi:      33.51 MB

     Dynamical RAM for      wfcinit/wfcrot:      22.34 MB

     Dynamical RAM for           addusdens:     149.86 MB

     Estimated static dynamical RAM per process >     125.19 MB

     Estimated max dynamical RAM per process >     275.05 MB

     Estimated total dynamical RAM >       6.45 GB
     Generating pointlists ...
     new r_m :   0.0748 (alat units)  2.2451 (a.u.) for type    1
     new r_m :   0.0748 (alat units)  2.2451 (a.u.) for type    2

     Check: negative core charge=   -0.000004

     Initial potential from superposition of free atoms

     starting charge  146.99440, renormalised to  147.00000
     Starting wfcs are  117 randomized atomic wfcs
     Checking if some PAW data can be deallocated... 
       PAW data deallocated on    2 nodes for type:  1
       PAW data deallocated on   22 nodes for type:  2

     total cpu time spent up to now is       27.8 secs

     Self-consistent Calculation

     iteration #  1     ecut=    75.00 Ry     beta= 0.70
     Davidson diagonalization with overlap
     ethr =  1.00E-02,  avg # of iterations =  2.5

     total cpu time spent up to now is       75.6 secs

     total energy              =   -5168.01985322 Ry
     Harris-Foulkes estimate   =   -5160.95799347 Ry
     estimated scf accuracy    <       7.44663234 Ry

     total magnetization       =     7.03 Bohr mag/cell
     absolute magnetization    =     7.03 Bohr mag/cell

     iteration #  2     ecut=    75.00 Ry     beta= 0.70
     Davidson diagonalization with overlap
     ethr =  5.07E-03,  avg # of iterations =  1.0

     total cpu time spent up to now is      119.7 secs

     total energy              =   -5168.96038215 Ry
     Harris-Foulkes estimate   =   -5168.18759930 Ry
     estimated scf accuracy    <       0.94792215 Ry

     total magnetization       =     3.00 Bohr mag/cell
     absolute magnetization    =     3.08 Bohr mag/cell

     iteration #  3     ecut=    75.00 Ry     beta= 0.70
     Davidson diagonalization with overlap
     ethr =  6.45E-04,  avg # of iterations =  3.0

     total cpu time spent up to now is      167.4 secs

     total energy              =   -5169.01591071 Ry
     Harris-Foulkes estimate   =   -5169.02481110 Ry
     estimated scf accuracy    <       0.06026894 Ry

     total magnetization       =     3.00 Bohr mag/cell
     absolute magnetization    =     3.00 Bohr mag/cell

     iteration #  4     ecut=    75.00 Ry     beta= 0.70
     Davidson diagonalization with overlap
     ethr =  4.10E-05,  avg # of iterations =  9.0

     total cpu time spent up to now is      232.0 secs

     total energy              =   -5169.02637096 Ry
     Harris-Foulkes estimate   =   -5169.03237794 Ry
     estimated scf accuracy    <       0.03047382 Ry

     total magnetization       =     3.00 Bohr mag/cell
     absolute magnetization    =     3.02 Bohr mag/cell

     iteration #  5     ecut=    75.00 Ry     beta= 0.70
     Davidson diagonalization with overlap
     ethr =  2.07E-05,  avg # of iterations =  2.5

     total cpu time spent up to now is      277.4 secs

     total energy              =   -5169.02347246 Ry
     Harris-Foulkes estimate   =   -5169.02776337 Ry
     estimated scf accuracy    <       0.01836911 Ry

     total magnetization       =     3.00 Bohr mag/cell
     absolute magnetization    =     3.05 Bohr mag/cell

     iteration #  6     ecut=    75.00 Ry     beta= 0.70
     Davidson diagonalization with overlap
     ethr =  1.25E-05,  avg # of iterations =  9.0

     total cpu time spent up to now is      326.9 secs

     total energy              =   -5169.02181702 Ry
     Harris-Foulkes estimate   =   -5169.02425145 Ry
     estimated scf accuracy    <       0.01197503 Ry

     total magnetization       =     3.00 Bohr mag/cell
     absolute magnetization    =     3.09 Bohr mag/cell

     iteration #  7     ecut=    75.00 Ry     beta= 0.70
     Davidson diagonalization with overlap
     ethr =  8.15E-06,  avg # of iterations = 11.5

     total cpu time spent up to now is      379.3 secs

     total energy              =   -5169.02075164 Ry
     Harris-Foulkes estimate   =   -5169.02251320 Ry
     estimated scf accuracy    <       0.00637070 Ry

     total magnetization       =     3.00 Bohr mag/cell
     absolute magnetization    =     3.09 Bohr mag/cell

     iteration #  8     ecut=    75.00 Ry     beta= 0.70
     Davidson diagonalization with overlap
     c_bands:  1 eigenvalues not converged
     ethr =  4.33E-06,  avg # of iterations = 12.0

     total cpu time spent up to now is      433.4 secs

     total energy              =   -5169.02047579 Ry
     Harris-Foulkes estimate   =   -5169.02097741 Ry
     estimated scf accuracy    <       0.00405357 Ry

     total magnetization       =     3.00 Bohr mag/cell
     absolute magnetization    =     3.10 Bohr mag/cell

     iteration #  9     ecut=    75.00 Ry     beta= 0.70
     Davidson diagonalization with overlap
     c_bands:  1 eigenvalues not converged
     ethr =  2.76E-06,  avg # of iterations = 16.0

     total cpu time spent up to now is      490.8 secs

     total energy              =   -5169.02198991 Ry
     Harris-Foulkes estimate   =   -5169.02076765 Ry
     estimated scf accuracy    <       0.00234134 Ry

     total magnetization       =     3.00 Bohr mag/cell
     absolute magnetization    =     3.08 Bohr mag/cell

     iteration # 10     ecut=    75.00 Ry     beta= 0.70
     Davidson diagonalization with overlap
     ethr =  1.59E-06,  avg # of iterations = 11.0

     total cpu time spent up to now is      544.8 secs

     total energy              =   -5169.02310950 Ry
     Harris-Foulkes estimate   =   -5169.02223578 Ry
     estimated scf accuracy    <       0.00204675 Ry

     total magnetization       =     3.00 Bohr mag/cell
     absolute magnetization    =     3.07 Bohr mag/cell

     iteration # 11     ecut=    75.00 Ry     beta= 0.70
     Davidson diagonalization with overlap
     ethr =  1.39E-06,  avg # of iterations =  8.5

     total cpu time spent up to now is      597.5 secs

     total energy              =   -5169.02412325 Ry
     Harris-Foulkes estimate   =   -5169.02329430 Ry
     estimated scf accuracy    <       0.00068058 Ry

     total magnetization       =     3.00 Bohr mag/cell
     absolute magnetization    =     3.07 Bohr mag/cell

     iteration # 12     ecut=    75.00 Ry     beta= 0.70
     Davidson diagonalization with overlap
     ethr =  4.63E-07,  avg # of iterations = 11.0

     total cpu time spent up to now is      650.4 secs

     total energy              =   -5169.02438572 Ry
     Harris-Foulkes estimate   =   -5169.02418828 Ry
     estimated scf accuracy    <       0.00074687 Ry

     total magnetization       =     3.00 Bohr mag/cell
     absolute magnetization    =     3.08 Bohr mag/cell

     iteration # 13     ecut=    75.00 Ry     beta= 0.70
     Davidson diagonalization with overlap
     ethr =  4.63E-07,  avg # of iterations =  2.0

     total cpu time spent up to now is      696.0 secs

     total energy              =   -5169.02461421 Ry
     Harris-Foulkes estimate   =   -5169.02443827 Ry
     estimated scf accuracy    <       0.00036447 Ry

     total magnetization       =     3.00 Bohr mag/cell
     absolute magnetization    =     3.08 Bohr mag/cell

     iteration # 14     ecut=    75.00 Ry     beta= 0.70
     Davidson diagonalization with overlap
     ethr =  2.48E-07,  avg # of iterations =  8.5

     total cpu time spent up to now is      745.6 secs

     total energy              =   -5169.02472190 Ry
     Harris-Foulkes estimate   =   -5169.02462733 Ry
     estimated scf accuracy    <       0.00024446 Ry

     total magnetization       =     3.00 Bohr mag/cell
     absolute magnetization    =     3.08 Bohr mag/cell

     iteration # 15     ecut=    75.00 Ry     beta= 0.70
     Davidson diagonalization with overlap
     ethr =  1.66E-07,  avg # of iterations =  7.0

     total cpu time spent up to now is      795.8 secs

     total energy              =   -5169.02477087 Ry
     Harris-Foulkes estimate   =   -5169.02473712 Ry
     estimated scf accuracy    <       0.00010965 Ry

     total magnetization       =     3.00 Bohr mag/cell
     absolute magnetization    =     3.08 Bohr mag/cell

     iteration # 16     ecut=    75.00 Ry     beta= 0.70
     Davidson diagonalization with overlap
     ethr =  7.46E-08,  avg # of iterations =  2.0

     total cpu time spent up to now is      840.3 secs

     total energy              =   -5169.02484533 Ry
     Harris-Foulkes estimate   =   -5169.02477517 Ry
     estimated scf accuracy    <       0.00005545 Ry

     total magnetization       =     3.00 Bohr mag/cell
     absolute magnetization    =     3.08 Bohr mag/cell

     iteration # 17     ecut=    75.00 Ry     beta= 0.70
     Davidson diagonalization with overlap
     ethr =  3.77E-08,  avg # of iterations = 13.5

     total cpu time spent up to now is      893.0 secs

     total energy              =   -5169.02487281 Ry
     Harris-Foulkes estimate   =   -5169.02484997 Ry
     estimated scf accuracy    <       0.00002566 Ry

     total magnetization       =     3.00 Bohr mag/cell
     absolute magnetization    =     3.08 Bohr mag/cell

     iteration # 18     ecut=    75.00 Ry     beta= 0.70
     Davidson diagonalization with overlap
     ethr =  1.75E-08,  avg # of iterations =  1.5

     total cpu time spent up to now is      937.1 secs

     total energy              =   -5169.02490453 Ry
     Harris-Foulkes estimate   =   -5169.02487383 Ry
     estimated scf accuracy    <       0.00001334 Ry

     total magnetization       =     3.00 Bohr mag/cell
     absolute magnetization    =     3.08 Bohr mag/cell

     iteration # 19     ecut=    75.00 Ry     beta= 0.70
     Davidson diagonalization with overlap
     ethr =  9.08E-09,  avg # of iterations =  3.0

     total cpu time spent up to now is      985.1 secs

     total energy              =   -5169.02491188 Ry
     Harris-Foulkes estimate   =   -5169.02490640 Ry
     estimated scf accuracy    <       0.00001163 Ry

     total magnetization       =     3.00 Bohr mag/cell
     absolute magnetization    =     3.08 Bohr mag/cell

     iteration # 20     ecut=    75.00 Ry     beta= 0.70
     Davidson diagonalization with overlap
     ethr =  7.91E-09,  avg # of iterations =  2.0

     total cpu time spent up to now is     1030.6 secs

     total energy              =   -5169.02491581 Ry
     Harris-Foulkes estimate   =   -5169.02491266 Ry
     estimated scf accuracy    <       0.00000330 Ry

     total magnetization       =     3.00 Bohr mag/cell
     absolute magnetization    =     3.08 Bohr mag/cell

     iteration # 21     ecut=    75.00 Ry     beta= 0.70
     Davidson diagonalization with overlap
     ethr =  2.25E-09,  avg # of iterations =  3.0

     total cpu time spent up to now is     1076.4 secs

     total energy              =   -5169.02491722 Ry
     Harris-Foulkes estimate   =   -5169.02491598 Ry
     estimated scf accuracy    <       0.00000163 Ry

     total magnetization       =     3.00 Bohr mag/cell
     absolute magnetization    =     3.08 Bohr mag/cell

     iteration # 22     ecut=    75.00 Ry     beta= 0.70
     Davidson diagonalization with overlap
     ethr =  1.11E-09,  avg # of iterations =  3.0

     total cpu time spent up to now is     1122.5 secs

     total energy              =   -5169.02491797 Ry
     Harris-Foulkes estimate   =   -5169.02491733 Ry
     estimated scf accuracy    <       0.00000062 Ry

     total magnetization       =     3.00 Bohr mag/cell
     absolute magnetization    =     3.08 Bohr mag/cell

     iteration # 23     ecut=    75.00 Ry     beta= 0.70
     Davidson diagonalization with overlap
     ethr =  4.19E-10,  avg # of iterations =  3.5

     total cpu time spent up to now is     1168.6 secs

     total energy              =   -5169.02491837 Ry
     Harris-Foulkes estimate   =   -5169.02491802 Ry
     estimated scf accuracy    <       0.00000024 Ry

     total magnetization       =     3.00 Bohr mag/cell
     absolute magnetization    =     3.08 Bohr mag/cell

     iteration # 24     ecut=    75.00 Ry     beta= 0.70
     Davidson diagonalization with overlap
     ethr =  1.61E-10,  avg # of iterations =  3.5

     total cpu time spent up to now is     1215.0 secs

     total energy              =   -5169.02491854 Ry
     Harris-Foulkes estimate   =   -5169.02491839 Ry
     estimated scf accuracy    <       0.00000009 Ry

     total magnetization       =     3.00 Bohr mag/cell
     absolute magnetization    =     3.08 Bohr mag/cell

     iteration # 25     ecut=    75.00 Ry     beta= 0.70
     Davidson diagonalization with overlap
     ethr =  6.35E-11,  avg # of iterations =  3.5

     total cpu time spent up to now is     1261.8 secs

     total energy              =   -5169.02491865 Ry
     Harris-Foulkes estimate   =   -5169.02491855 Ry
     estimated scf accuracy    <       0.00000005 Ry

     total magnetization       =     3.00 Bohr mag/cell
     absolute magnetization    =     3.08 Bohr mag/cell

     iteration # 26     ecut=    75.00 Ry     beta= 0.70
     Davidson diagonalization with overlap
     ethr =  3.18E-11,  avg # of iterations =  4.0

     total cpu time spent up to now is     1308.9 secs

     total energy              =   -5169.02491871 Ry
     Harris-Foulkes estimate   =   -5169.02491866 Ry
     estimated scf accuracy    <       0.00000002 Ry

     total magnetization       =     3.00 Bohr mag/cell
     absolute magnetization    =     3.08 Bohr mag/cell

     iteration # 27     ecut=    75.00 Ry     beta= 0.70
     Davidson diagonalization with overlap
     ethr =  1.69E-11,  avg # of iterations =  3.0

     total cpu time spent up to now is     1355.2 secs

     total energy              =   -5169.02491880 Ry
     Harris-Foulkes estimate   =   -5169.02491872 Ry
     estimated scf accuracy    <       0.00000002 Ry

     total magnetization       =     3.00 Bohr mag/cell
     absolute magnetization    =     3.08 Bohr mag/cell

     iteration # 28     ecut=    75.00 Ry     beta= 0.70
     Davidson diagonalization with overlap
     ethr =  1.14E-11,  avg # of iterations =  4.0

     total cpu time spent up to now is     1408.1 secs

     total energy              =   -5169.02491883 Ry
     Harris-Foulkes estimate   =   -5169.02491881 Ry
     estimated scf accuracy    <       0.00000001 Ry

     total magnetization       =     3.00 Bohr mag/cell
     absolute magnetization    =     3.08 Bohr mag/cell

     iteration # 29     ecut=    75.00 Ry     beta= 0.70
     Davidson diagonalization with overlap
     ethr =  6.87E-12,  avg # of iterations =  2.0
 
     Magnetic moment per site:
     atom:    1    charge:    9.5806    magn:    0.0878    constr:    0.0000
     atom:    2    charge:    9.5813    magn:    0.0868    constr:    0.0000
     atom:    3    charge:    9.5818    magn:    0.0855    constr:    0.0000
     atom:    4    charge:    9.5815    magn:    0.0865    constr:    0.0000
     atom:    5    charge:    9.5812    magn:    0.0867    constr:    0.0000
     atom:    6    charge:    9.5806    magn:    0.0878    constr:    0.0000
     atom:    7    charge:    9.5809    magn:    0.0872    constr:    0.0000
     atom:    8    charge:   12.3517    magn:   -0.0039    constr:    0.0000
     atom:    9    charge:    9.5818    magn:    0.0858    constr:    0.0000
     atom:   10    charge:    9.5809    magn:    0.0873    constr:    0.0000
     atom:   11    charge:    9.5818    magn:    0.0855    constr:    0.0000
     atom:   12    charge:    9.5814    magn:    0.0864    constr:    0.0000
     atom:   13    charge:    9.5816    magn:    0.0857    constr:    0.0000

     total cpu time spent up to now is     1450.5 secs

     End of self-consistent calculation

 ------ SPIN UP ------------


          k = 0.0000 0.0000 0.0000 (148230 PWs)   bands (ev):

   -26.8703 -26.8699 -26.8698 -26.8694 -26.8690 -15.6118  -9.1473  -9.1472
    -9.1469  -7.8732  -7.8727  -7.8709  -7.8685  -7.8677  -7.8509  -7.8495
    -7.8479  -7.8473  -7.6630  -7.6628  -7.6623  -7.5905  -7.5632  -7.5629
    -7.5626  -7.5619  -7.3623  -7.3621  -7.3618  -7.2390  -7.2381  -7.2372
    -7.2361  -7.2348  -7.0338  -7.0332  -7.0328  -7.0319  -7.0315  -6.8855
    -6.8851  -6.8843  -6.8834  -6.8825  -6.8642  -6.8620  -6.8612  -6.6799
    -6.6783  -6.6774  -6.6755  -6.5462  -6.5449  -6.5443  -6.5431  -6.5424
    -6.4615  -6.4602  -6.4601  -6.4554  -6.4539  -6.4533  -6.4514  -6.2560
    -6.2556  -6.2544  -5.8224  -5.8207  -5.8200  -5.1204  -3.4247  -3.4204
    -3.4169  -3.4107  -3.4062  -2.1993  -2.1991  -2.1976  -1.2829  -1.2814
    -1.2784  -0.8086  -0.8041  -0.7980  -0.7978  -0.2647   0.3934   0.3957
     0.4757

     occupation numbers 
     1.0000   1.0000   1.0000   1.0000   1.0000   1.0000   1.0000   1.0000
     1.0000   1.0000   1.0000   1.0000   1.0000   1.0000   1.0000   1.0000
     1.0000   1.0000   1.0000   1.0000   1.0000   1.0000   1.0000   1.0000
     1.0000   1.0000   1.0000   1.0000   1.0000   1.0000   1.0000   1.0000
     1.0000   1.0000   1.0000   1.0000   1.0000   1.0000   1.0000   1.0000
     1.0000   1.0000   1.0000   1.0000   1.0000   1.0000   1.0000   1.0000
     1.0000   1.0000   1.0000   1.0000   1.0000   1.0000   1.0000   1.0000
     1.0000   1.0000   1.0000   1.0000   1.0000   1.0000   1.0000   1.0000
     1.0000   1.0000   1.0000   1.0000   1.0000   1.0000   1.0000   1.0000
     1.0000   1.0000   1.0000   0.0000   0.0000   0.0000   0.0000   0.0000
     0.0000   0.0000   0.0000   0.0000   0.0000   0.0000   0.0000   0.0000
     0.0000

 ------ SPIN DOWN ----------


          k = 0.0000 0.0000 0.0000 (148230 PWs)   bands (ev):

   -26.8699 -26.8698 -26.8698 -26.8697 -26.8696 -15.5986  -9.0791  -9.0788
    -9.0785  -7.8013  -7.8006  -7.8001  -7.7996  -7.7988  -7.7845  -7.7837
    -7.7832  -7.7830  -7.5774  -7.5772  -7.5767  -7.4896  -7.4894  -7.4891
    -7.4887  -7.4634  -7.2750  -7.2747  -7.2741  -7.1709  -7.1707  -7.1702
    -7.1698  -7.1693  -6.9728  -6.9725  -6.9723  -6.9717  -6.9713  -6.8375
    -6.8374  -6.8359  -6.8356  -6.8346  -6.8230  -6.8215  -6.8209  -6.6165
    -6.6158  -6.6155  -6.6150  -6.4876  -6.4868  -6.4864  -6.4857  -6.4853
    -6.4072  -6.4062  -6.4060  -6.3946  -6.3943  -6.3941  -6.3934  -6.2070
    -6.2067  -6.2061  -5.6965  -5.6963  -5.6962  -4.9701  -3.1879  -3.1866
    -3.1848  -3.1837  -3.1823  -2.0477  -2.0476  -2.0472  -1.0788  -1.0774
    -1.0761  -0.5453  -0.5430  -0.5408  -0.5393  -0.1416   0.5423   0.5483
     0.6354

     occupation numbers 
     1.0000   1.0000   1.0000   1.0000   1.0000   1.0000   1.0000   1.0000
     1.0000   1.0000   1.0000   1.0000   1.0000   1.0000   1.0000   1.0000
     1.0000   1.0000   1.0000   1.0000   1.0000   1.0000   1.0000   1.0000
     1.0000   1.0000   1.0000   1.0000   1.0000   1.0000   1.0000   1.0000
     1.0000   1.0000   1.0000   1.0000   1.0000   1.0000   1.0000   1.0000
     1.0000   1.0000   1.0000   1.0000   1.0000   1.0000   1.0000   1.0000
     1.0000   1.0000   1.0000   1.0000   1.0000   1.0000   1.0000   1.0000
     1.0000   1.0000   1.0000   1.0000   1.0000   1.0000   1.0000   1.0000
     1.0000   1.0000   1.0000   1.0000   1.0000   1.0000   0.4730   0.4374
     0.3925   0.3654   0.3317   0.0000   0.0000   0.0000   0.0000   0.0000
     0.0000   0.0000   0.0000   0.0000   0.0000   0.0000   0.0000   0.0000
     0.0000

     the Fermi energy is    -3.1890 ev

!    total energy              =   -5169.02491892 Ry
     Harris-Foulkes estimate   =   -5169.02491883 Ry
     estimated scf accuracy    <          7.7E-09 Ry

     total all-electron energy =   -170648.075580 Ry

     The total energy is the sum of the following terms:

     one-electron contribution =   -3713.51137805 Ry
     hartree contribution      =    1951.77772905 Ry
     xc contribution           =    -459.74953715 Ry
     ewald contribution        =     958.99408003 Ry
     one-center paw contrib.   =   -3906.53347573 Ry
      -> PAW hartree energy AE =      66.75421694 Ry
      -> PAW hartree energy PS =     -66.60693236 Ry
      -> PAW xc energy AE      =    -297.85710487 Ry
      -> PAW xc energy PS      =      35.21467384 Ry
      -> total E_H with PAW    =    1951.92501363 Ry
      -> total E_XC with PAW   =    -722.39196817 Ry
     smearing contrib. (-TS)   =      -0.00233707 Ry

     total magnetization       =     3.00 Bohr mag/cell
     absolute magnetization    =     3.08 Bohr mag/cell

     convergence has been achieved in  29 iterations

     Writing output data file ./tmp/ag12Bic.save/
 
     init_run     :     22.74s CPU     23.58s WALL (       1 calls)
     electrons    :   1392.98s CPU   1422.93s WALL (       1 calls)

     Called by init_run:
     wfcinit      :     13.26s CPU     13.48s WALL (       1 calls)
     wfcinit:atom :      0.08s CPU      0.12s WALL (       2 calls)
     wfcinit:wfcr :     12.95s CPU     13.08s WALL (       2 calls)
     potinit      :      3.39s CPU      3.55s WALL (       1 calls)
     hinit0       :      1.60s CPU      1.69s WALL (       1 calls)

     Called by electrons:
     c_bands      :    798.44s CPU    807.99s WALL (      29 calls)
     sum_band     :    339.27s CPU    348.74s WALL (      29 calls)
     v_of_rho     :     51.56s CPU     52.80s WALL (      30 calls)
     v_h          :      3.16s CPU      3.18s WALL (      30 calls)
     v_xc         :     48.40s CPU     49.63s WALL (      30 calls)
     newd         :     85.83s CPU     94.33s WALL (      30 calls)
     PAW_pot      :     38.48s CPU     38.78s WALL (      30 calls)
     mix_rho      :     83.23s CPU     84.24s WALL (      29 calls)

     Called by c_bands:
     init_us_2    :      4.68s CPU      4.77s WALL (     118 calls)
     regterg      :    774.35s CPU    783.65s WALL (      58 calls)

     Called by sum_band:
     sum_band:bec :      0.03s CPU      0.04s WALL (      58 calls)
     addusdens    :    181.68s CPU    190.60s WALL (      29 calls)

     Called by *egterg:
     h_psi        :    625.49s CPU    628.05s WALL (     392 calls)
     s_psi        :     40.04s CPU     40.11s WALL (     392 calls)
     g_psi        :      1.28s CPU      1.28s WALL (     332 calls)
     rdiaghg      :     10.50s CPU     11.10s WALL (     390 calls)
     regterg:over :     40.38s CPU     40.45s WALL (     332 calls)
     regterg:upda :     36.47s CPU     36.82s WALL (     332 calls)
     regterg:last :     10.54s CPU     10.57s WALL (      58 calls)
     rdiaghg:chol :      0.36s CPU      0.37s WALL (     390 calls)
     rdiaghg:inve :      0.29s CPU      0.30s WALL (     390 calls)
     rdiaghg:para :      0.90s CPU      0.91s WALL (     780 calls)

     Called by h_psi:
     h_psi:calbec :     31.32s CPU     31.40s WALL (     392 calls)
     vloc_psi     :    549.00s CPU    551.38s WALL (     392 calls)
     add_vuspsi   :     42.31s CPU     42.39s WALL (     392 calls)

     General routines
     calbec       :     40.97s CPU     41.08s WALL (     450 calls)
     fft          :     43.83s CPU     44.12s WALL (     507 calls)
     ffts         :     57.00s CPU     57.17s WALL (     652 calls)
     fftw         :    543.00s CPU    545.28s WALL (   14684 calls)
 
     Parallel routines
     fft_scatt_xy :    113.41s CPU    113.93s WALL (   15843 calls)
     fft_scatt_yz :    158.99s CPU    159.69s WALL (   15843 calls)

     PAW routines
     PAW_pot      :     38.48s CPU     38.78s WALL (      30 calls)
 
     PWSCF        :  23m40.24s CPU  24m12.23s WALL

 
   This run was terminated on:  15:48:31  19Jun2020            

=------------------------------------------------------------------------------=
   JOB DONE.
=------------------------------------------------------------------------------=
