
     Program PROJWFC v.6.5 starts on  2Apr2021 at 15:42:14 

     This program is part of the open-source Quantum ESPRESSO suite
     for quantum simulation of materials; please cite
         "P. Giannozzi et al., J. Phys.:Condens. Matter 21 395502 (2009);
         "P. Giannozzi et al., J. Phys.:Condens. Matter 29 465901 (2017);
          URL http://www.quantum-espresso.org", 
     in publications or presentations arising from this work. More details at
     http://www.quantum-espresso.org/quote

     Parallel version (MPI & OpenMP), running on      24 processor cores
     Number of MPI processes:                24
     Threads/MPI process:                     1

     MPI processes distributed on     1 nodes
     R & G space division:  proc/nbgrp/npool/nimage =      24

     Reading xml data from directory:

     ./tmp/ag12Bil.save/
     Message from routine  set_nelup_neldw :
     BEWARE: non-integer number of up and down electrons!

     IMPORTANT: XC functional enforced from input :
     Exchange-correlation= PBE
                           (   1   4   3   4   0   0   0)
     Any further DFT definition will be discarded
     Please, verify this is what you really want

               file Ag.pbe-dn-kjpaw_psl.0.1.UPF: wavefunction(s)  5S 5P 4D renormalized
               file Bi.pbe-dn-kjpaw_psl.1.0.0.UPF: wavefunction(s)  6P 5D renormalized
 
     Parallelization info
     --------------------
     sticks:   dense  smooth     PW     G-vecs:    dense   smooth      PW
     Min        2516    2148    535               465600   367032   45855
     Max        2518    2150    538               465610   367046   45862
     Sum       60425   51577  12893             11174549  8808945 1100629
 
     Generating pointlists ...
     new r_m :   0.0464 (alat units)  2.0900 (a.u.) for type    1
     new r_m :   0.0522 (alat units)  2.3506 (a.u.) for type    2

     Check: negative core charge=   -0.000001

     Gaussian broadening (read from file): ngauss,degauss= -99    0.000700


     Calling projwave .... 
     linear algebra parallelized on  16 procs
     gamma-point specific algorithms are used
 
  Problem Sizes 
  natomwfc =          117
  nx       =           30
  nbnd     =           89
  nkstot   =            2
  npwx     =        22931
  nkb      =          234
 

     Atomic states used for projection
     (read from pseudopotential files):

     state #   1: atom   1 (Ag ), wfc  1 (l=0 m= 1)
     state #   2: atom   1 (Ag ), wfc  2 (l=1 m= 1)
     state #   3: atom   1 (Ag ), wfc  2 (l=1 m= 2)
     state #   4: atom   1 (Ag ), wfc  2 (l=1 m= 3)
     state #   5: atom   1 (Ag ), wfc  3 (l=2 m= 1)
     state #   6: atom   1 (Ag ), wfc  3 (l=2 m= 2)
     state #   7: atom   1 (Ag ), wfc  3 (l=2 m= 3)
     state #   8: atom   1 (Ag ), wfc  3 (l=2 m= 4)
     state #   9: atom   1 (Ag ), wfc  3 (l=2 m= 5)
     state #  10: atom   2 (Ag ), wfc  1 (l=0 m= 1)
     state #  11: atom   2 (Ag ), wfc  2 (l=1 m= 1)
     state #  12: atom   2 (Ag ), wfc  2 (l=1 m= 2)
     state #  13: atom   2 (Ag ), wfc  2 (l=1 m= 3)
     state #  14: atom   2 (Ag ), wfc  3 (l=2 m= 1)
     state #  15: atom   2 (Ag ), wfc  3 (l=2 m= 2)
     state #  16: atom   2 (Ag ), wfc  3 (l=2 m= 3)
     state #  17: atom   2 (Ag ), wfc  3 (l=2 m= 4)
     state #  18: atom   2 (Ag ), wfc  3 (l=2 m= 5)
     state #  19: atom   3 (Ag ), wfc  1 (l=0 m= 1)
     state #  20: atom   3 (Ag ), wfc  2 (l=1 m= 1)
     state #  21: atom   3 (Ag ), wfc  2 (l=1 m= 2)
     state #  22: atom   3 (Ag ), wfc  2 (l=1 m= 3)
     state #  23: atom   3 (Ag ), wfc  3 (l=2 m= 1)
     state #  24: atom   3 (Ag ), wfc  3 (l=2 m= 2)
     state #  25: atom   3 (Ag ), wfc  3 (l=2 m= 3)
     state #  26: atom   3 (Ag ), wfc  3 (l=2 m= 4)
     state #  27: atom   3 (Ag ), wfc  3 (l=2 m= 5)
     state #  28: atom   4 (Ag ), wfc  1 (l=0 m= 1)
     state #  29: atom   4 (Ag ), wfc  2 (l=1 m= 1)
     state #  30: atom   4 (Ag ), wfc  2 (l=1 m= 2)
     state #  31: atom   4 (Ag ), wfc  2 (l=1 m= 3)
     state #  32: atom   4 (Ag ), wfc  3 (l=2 m= 1)
     state #  33: atom   4 (Ag ), wfc  3 (l=2 m= 2)
     state #  34: atom   4 (Ag ), wfc  3 (l=2 m= 3)
     state #  35: atom   4 (Ag ), wfc  3 (l=2 m= 4)
     state #  36: atom   4 (Ag ), wfc  3 (l=2 m= 5)
     state #  37: atom   5 (Ag ), wfc  1 (l=0 m= 1)
     state #  38: atom   5 (Ag ), wfc  2 (l=1 m= 1)
     state #  39: atom   5 (Ag ), wfc  2 (l=1 m= 2)
     state #  40: atom   5 (Ag ), wfc  2 (l=1 m= 3)
     state #  41: atom   5 (Ag ), wfc  3 (l=2 m= 1)
     state #  42: atom   5 (Ag ), wfc  3 (l=2 m= 2)
     state #  43: atom   5 (Ag ), wfc  3 (l=2 m= 3)
     state #  44: atom   5 (Ag ), wfc  3 (l=2 m= 4)
     state #  45: atom   5 (Ag ), wfc  3 (l=2 m= 5)
     state #  46: atom   6 (Ag ), wfc  1 (l=0 m= 1)
     state #  47: atom   6 (Ag ), wfc  2 (l=1 m= 1)
     state #  48: atom   6 (Ag ), wfc  2 (l=1 m= 2)
     state #  49: atom   6 (Ag ), wfc  2 (l=1 m= 3)
     state #  50: atom   6 (Ag ), wfc  3 (l=2 m= 1)
     state #  51: atom   6 (Ag ), wfc  3 (l=2 m= 2)
     state #  52: atom   6 (Ag ), wfc  3 (l=2 m= 3)
     state #  53: atom   6 (Ag ), wfc  3 (l=2 m= 4)
     state #  54: atom   6 (Ag ), wfc  3 (l=2 m= 5)
     state #  55: atom   7 (Ag ), wfc  1 (l=0 m= 1)
     state #  56: atom   7 (Ag ), wfc  2 (l=1 m= 1)
     state #  57: atom   7 (Ag ), wfc  2 (l=1 m= 2)
     state #  58: atom   7 (Ag ), wfc  2 (l=1 m= 3)
     state #  59: atom   7 (Ag ), wfc  3 (l=2 m= 1)
     state #  60: atom   7 (Ag ), wfc  3 (l=2 m= 2)
     state #  61: atom   7 (Ag ), wfc  3 (l=2 m= 3)
     state #  62: atom   7 (Ag ), wfc  3 (l=2 m= 4)
     state #  63: atom   7 (Ag ), wfc  3 (l=2 m= 5)
     state #  64: atom   8 (Ag ), wfc  1 (l=0 m= 1)
     state #  65: atom   8 (Ag ), wfc  2 (l=1 m= 1)
     state #  66: atom   8 (Ag ), wfc  2 (l=1 m= 2)
     state #  67: atom   8 (Ag ), wfc  2 (l=1 m= 3)
     state #  68: atom   8 (Ag ), wfc  3 (l=2 m= 1)
     state #  69: atom   8 (Ag ), wfc  3 (l=2 m= 2)
     state #  70: atom   8 (Ag ), wfc  3 (l=2 m= 3)
     state #  71: atom   8 (Ag ), wfc  3 (l=2 m= 4)
     state #  72: atom   8 (Ag ), wfc  3 (l=2 m= 5)
     state #  73: atom   9 (Ag ), wfc  1 (l=0 m= 1)
     state #  74: atom   9 (Ag ), wfc  2 (l=1 m= 1)
     state #  75: atom   9 (Ag ), wfc  2 (l=1 m= 2)
     state #  76: atom   9 (Ag ), wfc  2 (l=1 m= 3)
     state #  77: atom   9 (Ag ), wfc  3 (l=2 m= 1)
     state #  78: atom   9 (Ag ), wfc  3 (l=2 m= 2)
     state #  79: atom   9 (Ag ), wfc  3 (l=2 m= 3)
     state #  80: atom   9 (Ag ), wfc  3 (l=2 m= 4)
     state #  81: atom   9 (Ag ), wfc  3 (l=2 m= 5)
     state #  82: atom  10 (Bi ), wfc  1 (l=0 m= 1)
     state #  83: atom  10 (Bi ), wfc  2 (l=1 m= 1)
     state #  84: atom  10 (Bi ), wfc  2 (l=1 m= 2)
     state #  85: atom  10 (Bi ), wfc  2 (l=1 m= 3)
     state #  86: atom  10 (Bi ), wfc  3 (l=2 m= 1)
     state #  87: atom  10 (Bi ), wfc  3 (l=2 m= 2)
     state #  88: atom  10 (Bi ), wfc  3 (l=2 m= 3)
     state #  89: atom  10 (Bi ), wfc  3 (l=2 m= 4)
     state #  90: atom  10 (Bi ), wfc  3 (l=2 m= 5)
     state #  91: atom  11 (Ag ), wfc  1 (l=0 m= 1)
     state #  92: atom  11 (Ag ), wfc  2 (l=1 m= 1)
     state #  93: atom  11 (Ag ), wfc  2 (l=1 m= 2)
     state #  94: atom  11 (Ag ), wfc  2 (l=1 m= 3)
     state #  95: atom  11 (Ag ), wfc  3 (l=2 m= 1)
     state #  96: atom  11 (Ag ), wfc  3 (l=2 m= 2)
     state #  97: atom  11 (Ag ), wfc  3 (l=2 m= 3)
     state #  98: atom  11 (Ag ), wfc  3 (l=2 m= 4)
     state #  99: atom  11 (Ag ), wfc  3 (l=2 m= 5)
     state # 100: atom  12 (Ag ), wfc  1 (l=0 m= 1)
     state # 101: atom  12 (Ag ), wfc  2 (l=1 m= 1)
     state # 102: atom  12 (Ag ), wfc  2 (l=1 m= 2)
     state # 103: atom  12 (Ag ), wfc  2 (l=1 m= 3)
     state # 104: atom  12 (Ag ), wfc  3 (l=2 m= 1)
     state # 105: atom  12 (Ag ), wfc  3 (l=2 m= 2)
     state # 106: atom  12 (Ag ), wfc  3 (l=2 m= 3)
     state # 107: atom  12 (Ag ), wfc  3 (l=2 m= 4)
     state # 108: atom  12 (Ag ), wfc  3 (l=2 m= 5)
     state # 109: atom  13 (Ag ), wfc  1 (l=0 m= 1)
     state # 110: atom  13 (Ag ), wfc  2 (l=1 m= 1)
     state # 111: atom  13 (Ag ), wfc  2 (l=1 m= 2)
     state # 112: atom  13 (Ag ), wfc  2 (l=1 m= 3)
     state # 113: atom  13 (Ag ), wfc  3 (l=2 m= 1)
     state # 114: atom  13 (Ag ), wfc  3 (l=2 m= 2)
     state # 115: atom  13 (Ag ), wfc  3 (l=2 m= 3)
     state # 116: atom  13 (Ag ), wfc  3 (l=2 m= 4)
     state # 117: atom  13 (Ag ), wfc  3 (l=2 m= 5)

 k =   0.0000000000  0.0000000000  0.0000000000
==== e(   1) =   -26.32350 eV ==== 
     psi = 0.388*[#  88]+0.334*[#  87]+0.263*[#  90]+0.012*[#  86]+0.002*[#  89]
          
    |psi|^2 = 1.000
==== e(   2) =   -26.30065 eV ==== 
     psi = 0.577*[#  89]+0.203*[#  87]+0.198*[#  88]+0.012*[#  90]+0.008*[#  86]
          
    |psi|^2 = 1.000
==== e(   3) =   -26.30062 eV ==== 
     psi = 0.714*[#  86]+0.231*[#  90]+0.031*[#  87]+0.014*[#  89]+0.008*[#  88]
          
    |psi|^2 = 1.000
==== e(   4) =   -26.21100 eV ==== 
     psi = 0.392*[#  90]+0.332*[#  87]+0.195*[#  86]+0.078*[#  89]+0.002*[#  88]
          
    |psi|^2 = 1.000
==== e(   5) =   -26.21099 eV ==== 
     psi = 0.402*[#  88]+0.328*[#  89]+0.100*[#  90]+0.099*[#  87]+0.069*[#  86]
          
    |psi|^2 = 1.000
==== e(   6) =   -14.46388 eV ==== 
     psi = 0.687*[#  82]+0.034*[#  47]+0.031*[#  12]+0.031*[#  31]+0.019*[#  22]
          +0.019*[#  75]+0.016*[#  65]+0.013*[#  67]+0.011*[#  66]+0.011*[#  74]
          +0.009*[#  20]+0.008*[#  64]+0.008*[#  10]+0.008*[#  19]+0.008*[#  28]
          +0.008*[#  46]+0.008*[#  73]+0.006*[#  21]+0.006*[#  50]+0.005*[#  76]
          +0.003*[#  17]+0.003*[#  35]+0.003*[#  70]+0.003*[#  78]+0.003*[#  69]
          +0.003*[#  25]+0.002*[#  13]+0.002*[#  27]+0.002*[#  72]+0.002*[#  30]
          +0.002*[#  81]+0.002*[#  29]+0.001*[#  11]+0.001*[#  14]+0.001*[#  32]
          +0.001*[#  55]
    |psi|^2 = 0.999
==== e(   7) =    -9.88640 eV ==== 
     psi = 0.151*[#  64]+0.025*[#  80]+0.024*[#  26]+0.022*[#  93]+0.022*[# 112]
          +0.021*[#  98]+0.021*[# 116]+0.020*[#  32]+0.019*[#  76]+0.019*[#  70]
          +0.019*[#  54]+0.018*[#  21]+0.018*[#   1]+0.018*[#  37]+0.018*[#  91]
          +0.018*[# 100]+0.018*[# 109]+0.018*[#   9]+0.017*[# 101]+0.017*[#  29]
          +0.016*[#  11]+0.016*[#  14]+0.016*[#  69]+0.016*[#  38]+0.014*[#  82]
          +0.014*[# 104]+0.013*[#  50]+0.013*[#  10]+0.013*[#  19]+0.013*[#  28]
          +0.013*[#  46]+0.013*[#  73]+0.013*[#  72]+0.012*[#  55]+0.011*[#  42]
          +0.011*[#  41]+0.011*[#  49]+0.010*[#  48]+0.010*[#   3]+0.010*[#   4]
          +0.010*[# 106]+0.009*[#  16]+0.009*[#  33]+0.008*[#  56]+0.007*[#  43]
          +0.007*[# 113]+0.007*[#  95]+0.007*[# 105]+0.007*[#  58]+0.006*[#  61]
          +0.006*[#  77]+0.006*[#  15]+0.006*[#  57]+0.005*[#  24]+0.005*[#  60]
          +0.005*[#  39]+0.005*[#  23]+0.005*[#   7]+0.005*[#   6]+0.005*[#   5]
          +0.005*[#  83]+0.004*[#  13]+0.004*[#  34]+0.004*[#  63]+0.004*[# 103]
          +0.004*[#   2]+0.004*[#  30]+0.004*[#  18]+0.004*[#  79]+0.004*[#  85]
          +0.003*[#  84]+0.003*[# 117]+0.003*[#  36]+0.002*[#  20]+0.002*[#  52]
          +0.002*[#  45]+0.002*[#  40]+0.002*[#  51]+0.002*[#  96]+0.002*[#  99]
          +0.002*[#  74]+0.002*[#  78]+0.002*[# 102]+0.002*[#  25]+0.002*[#  35]
          +0.002*[# 108]+0.001*[#  17]+0.001*[# 111]+0.001*[#  94]
    |psi|^2 = 0.997
==== e(   8) =    -9.57823 eV ==== 
     psi = 0.216*[#  71]+0.177*[#  69]+0.141*[#  70]+0.049*[#  53]+0.042*[#   8]
          +0.034*[#  24]+0.031*[#  79]+0.031*[#  96]+0.030*[#  32]+0.029*[# 104]
          +0.027*[# 115]+0.020*[#  14]+0.019*[#  41]+0.011*[#  27]+0.011*[#  99]
          +0.009*[# 117]+0.009*[#  43]+0.009*[#  16]+0.009*[#  81]+0.007*[#  37]
          +0.006*[#  10]+0.006*[# 100]+0.005*[#  28]+0.003*[#   7]+0.003*[# 109]
          +0.003*[#  73]+0.003*[#  52]+0.003*[#  72]+0.002*[# 105]+0.002*[#   6]
          +0.002*[#  20]+0.002*[#  33]+0.002*[#  92]+0.002*[#   4]+0.002*[#  29]
          +0.002*[#  51]+0.002*[#  74]+0.002*[#  91]+0.002*[# 101]+0.002*[#  11]
          +0.002*[#  19]+0.002*[#  38]+0.002*[#  42]+0.002*[#  49]+0.002*[# 110]
          +0.001*[# 116]+0.001*[#   3]+0.001*[#  25]+0.001*[#  48]+0.001*[#  62]
          +0.001*[#  80]+0.001*[#  60]+0.001*[#  97]
    |psi|^2 = 0.998
==== e(   9) =    -9.57813 eV ==== 
     psi = 0.262*[#  72]+0.142*[#  68]+0.076*[#  70]+0.054*[#  69]+0.031*[#  33]
          +0.029*[# 105]+0.023*[#   9]+0.022*[#  98]+0.022*[# 116]+0.022*[#  54]
          +0.021*[#  16]+0.021*[#  80]+0.020*[#  26]+0.019*[#  14]+0.019*[#  43]
          +0.016*[#  41]+0.012*[#  81]+0.010*[#  45]+0.009*[#  18]+0.008*[#  27]
          +0.008*[# 117]+0.008*[#  32]+0.007*[#   1]+0.007*[# 108]+0.007*[#  50]
          +0.007*[#  36]+0.006*[#  46]+0.006*[# 104]+0.006*[#   5]+0.006*[#  91]
          +0.005*[#  23]+0.005*[#  95]+0.005*[#  99]+0.005*[#  19]+0.005*[#  77]
          +0.004*[# 113]+0.004*[# 109]+0.003*[#  73]+0.003*[#  71]+0.003*[#  30]
          +0.003*[# 102]+0.002*[#  35]+0.002*[#  13]+0.002*[#  17]+0.002*[#  40]
          +0.002*[# 115]+0.002*[#  63]+0.002*[#  79]+0.002*[# 114]+0.001*[#  21]
          +0.001*[#  93]+0.001*[#  44]+0.001*[#  76]+0.001*[#  78]+0.001*[#  97]
          +0.001*[# 100]+0.001*[# 107]+0.001*[# 112]+0.001*[#   3]+0.001*[#  25]
          +0.001*[#  28]+0.001*[#  34]+0.001*[#  48]+0.001*[# 106]+0.001*[#  75]
          
    |psi|^2 = 0.998
==== e(  10) =    -9.53566 eV ==== 
     psi = 0.380*[#  68]+0.132*[#  72]+0.071*[#  59]+0.028*[#  70]+0.025*[#  42]
          +0.025*[#  63]+0.024*[#   7]+0.019*[#  15]+0.019*[#   6]+0.018*[#  52]
          +0.016*[#  99]+0.016*[# 106]+0.013*[#  51]+0.013*[#  27]+0.012*[#  34]
          +0.011*[#  44]+0.009*[#  71]+0.008*[#  36]+0.007*[#  46]+0.007*[# 108]
          +0.007*[#  18]+0.007*[#   1]+0.007*[# 107]+0.006*[#  81]+0.006*[#  10]
          +0.006*[#   5]+0.006*[# 117]+0.005*[#  37]+0.005*[#  45]+0.005*[#  61]
          +0.005*[#  79]+0.005*[#  83]+0.004*[#  17]+0.004*[#  95]+0.004*[#  28]
          +0.004*[# 115]+0.003*[# 100]+0.003*[# 116]+0.003*[#   2]+0.003*[#  56]
          +0.003*[#  84]+0.002*[#  23]+0.002*[#  39]+0.002*[#  24]+0.002*[#  47]
          +0.002*[#  80]+0.002*[# 113]+0.002*[#  12]+0.002*[#  35]+0.002*[#  33]
          +0.002*[#  19]+0.002*[#  62]+0.002*[# 103]+0.002*[# 104]+0.001*[#  25]
          +0.002*[#  54]+0.001*[#  31]+0.002*[#  57]+0.001*[#  91]+0.001*[#  41]
          +0.001*[#  22]+0.001*[#  77]+0.001*[#  94]
    |psi|^2 = 0.997
==== e(  11) =    -9.53554 eV ==== 
     psi = 0.316*[#  71]+0.129*[#  69]+0.086*[#  70]+0.059*[#  62]+0.026*[# 117]
          +0.024*[#  60]+0.022*[# 106]+0.018*[#  68]+0.017*[#  99]+0.016*[#  96]
          +0.016*[# 115]+0.016*[#  61]+0.015*[#  81]+0.015*[#  34]+0.010*[#  42]
          +0.009*[#  26]+0.009*[#  24]+0.008*[#  53]+0.008*[#  27]+0.007*[#   6]
          +0.008*[#  79]+0.007*[#  73]+0.007*[#  15]+0.007*[# 109]+0.006*[#   8]
          +0.006*[#  14]+0.006*[#  19]+0.006*[#  80]+0.006*[#  51]+0.005*[#  32]
          +0.005*[#  98]+0.005*[#  91]+0.005*[# 105]+0.005*[#  43]+0.005*[#  77]
          +0.005*[#  85]+0.004*[# 113]+0.004*[#  23]+0.004*[#  28]+0.004*[#  16]
          +0.003*[#  95]+0.003*[# 100]+0.003*[#  33]+0.003*[#  59]+0.003*[#  84]
          +0.003*[# 107]+0.003*[#  41]+0.003*[#  45]+0.003*[#  58]+0.002*[# 116]
          +0.002*[#  18]+0.002*[#  57]+0.002*[# 104]+0.001*[#   7]+0.001*[#  10]
          +0.001*[#  37]+0.001*[#  52]+0.001*[#  72]+0.001*[# 111]+0.001*[#  35]
          
    |psi|^2 = 0.997
==== e(  12) =    -9.46161 eV ==== 
     psi = 0.188*[#  70]+0.162*[#  69]+0.128*[#  72]+0.047*[#  61]+0.040*[#  60]
          +0.032*[#  63]+0.030*[#  55]+0.020*[#  99]+0.019*[#   5]+0.018*[# 117]
          +0.016*[# 106]+0.015*[#  44]+0.013*[# 115]+0.013*[#  82]+0.013*[#  42]
          +0.013*[# 107]+0.012*[#  64]+0.012*[#  96]+0.011*[#  83]+0.010*[#  27]
          +0.009*[#   6]+0.009*[#  34]+0.009*[#  81]+0.008*[#  85]+0.008*[#   7]
          +0.007*[#  15]+0.007*[#  84]+0.007*[#  79]+0.006*[#  24]+0.006*[#  50]
          +0.006*[#  68]+0.005*[#  17]+0.005*[#  41]+0.005*[#  51]+0.005*[#  52]
          +0.005*[#  65]+0.004*[#  35]+0.005*[# 104]+0.004*[#   2]+0.004*[#  39]
          +0.004*[#  43]+0.004*[# 103]+0.004*[#  56]+0.004*[#  67]+0.004*[# 105]
          +0.003*[# 114]+0.003*[#  66]+0.003*[#  58]+0.002*[#  57]+0.002*[#  94]
          +0.002*[# 111]+0.002*[#  16]+0.002*[#  97]+0.002*[#  33]+0.002*[# 116]
          +0.002*[#  14]+0.001*[#  59]+0.001*[#  32]+0.001*[#  95]+0.001*[# 110]
          +0.001*[#   9]+0.001*[#  92]+0.001*[#  98]
    |psi|^2 = 0.998
==== e(  13) =    -8.65779 eV ==== 
     psi = 0.067*[#  67]+0.058*[#  32]+0.044*[#  79]+0.041*[# 104]+0.035*[#  65]
          +0.035*[# 115]+0.030*[#  27]+0.030*[#  53]+0.029*[#  50]+0.028*[#  80]
          +0.027*[#  16]+0.025*[#   9]+0.024*[#  26]+0.022*[# 105]+0.022*[#  98]
          +0.022*[#  14]+0.021*[#  54]+0.021*[#  43]+0.020*[# 116]+0.018*[#  28]
          +0.018*[# 100]+0.018*[#  33]+0.017*[#   8]+0.017*[#  59]+0.016*[#  99]
          +0.014*[#  73]+0.014*[# 109]+0.013*[#  41]+0.012*[#  18]+0.012*[#  35]
          +0.012*[#  62]+0.011*[#   5]+0.011*[#  45]+0.011*[#  78]+0.010*[#  23]
          +0.010*[#   1]+0.010*[#  46]+0.008*[#  24]+0.008*[# 101]+0.007*[#  48]
          +0.007*[#   3]+0.007*[#  29]+0.007*[#  60]+0.007*[#  17]+0.005*[#  13]
          +0.005*[#  96]+0.005*[# 112]+0.005*[# 113]+0.005*[#  63]+0.004*[#  40]
          +0.004*[#  76]+0.004*[#  95]+0.004*[#  36]+0.003*[#  19]+0.003*[#  91]
          +0.003*[#  58]+0.003*[#  74]+0.003*[#  22]+0.003*[# 110]+0.003*[#  21]
          +0.003*[#  66]+0.003*[#  77]+0.003*[#  93]+0.002*[# 107]+0.002*[#  94]
          +0.002*[#  56]+0.002*[#  97]+0.002*[#   6]+0.002*[#  20]+0.001*[#   7]
          +0.001*[#  15]+0.001*[#  61]+0.001*[# 117]+0.001*[#  44]+0.001*[#  81]
          +0.001*[#  92]+0.001*[# 102]
    |psi|^2 = 0.996
==== e(  14) =    -8.65752 eV ==== 
     psi = 0.073*[#  66]+0.056*[#  14]+0.048*[#  24]+0.038*[#  41]+0.038*[#  96]
          +0.036*[#  53]+0.032*[#  33]+0.029*[#  26]+0.029*[#  80]+0.029*[#  81]
          +0.027*[#  65]+0.026*[# 116]+0.024*[#  50]+0.023*[#  43]+0.023*[# 105]
          +0.021*[#   8]+0.021*[#   9]+0.021*[#  32]+0.021*[#  98]+0.018*[#  10]
          +0.018*[#  16]+0.018*[#  37]+0.017*[#  54]+0.015*[#  19]+0.015*[# 117]
          +0.015*[#  91]+0.013*[#  59]+0.013*[#  62]+0.012*[# 104]+0.011*[#  17]
          +0.009*[#   5]+0.009*[#  77]+0.009*[# 108]+0.009*[#   1]+0.009*[#  36]
          +0.009*[#  46]+0.009*[#  25]+0.007*[#  38]+0.007*[#  49]+0.007*[#  61]
          +0.007*[#  79]+0.007*[#  11]+0.007*[#   4]+0.005*[#  30]+0.005*[#  35]
          +0.006*[#  63]+0.005*[#  93]+0.004*[#  18]+0.004*[#  67]+0.004*[#  73]
          +0.004*[#  21]+0.004*[# 102]+0.004*[# 109]+0.004*[# 115]+0.004*[#  57]
          +0.003*[#  20]+0.003*[#  95]+0.003*[# 113]+0.003*[#  60]+0.003*[#  76]
          +0.003*[#  92]+0.003*[# 112]+0.003*[#  44]+0.003*[#  75]+0.002*[#   7]
          +0.002*[#  34]+0.002*[# 111]+0.002*[#  52]+0.002*[#  42]+0.001*[#   6]
          +0.001*[#  56]+0.001*[#  74]+0.001*[#  40]+0.001*[# 114]
    |psi|^2 = 0.996
==== e(  15) =    -8.54254 eV ==== 
     psi = 0.158*[#  53]+0.112*[#   8]+0.074*[#  27]+0.069*[#  81]+0.061*[#  33]
          +0.058*[#  99]+0.057*[# 117]+0.046*[# 105]+0.036*[#  16]+0.033*[#  24]
          +0.029*[#  43]+0.022*[#  78]+0.020*[#  96]+0.018*[#  25]+0.015*[# 114]
          +0.013*[#  42]+0.012*[#  97]+0.012*[#  15]+0.010*[#  23]+0.010*[#  26]
          +0.010*[#  80]+0.009*[# 106]+0.008*[#  79]+0.008*[#  52]+0.007*[#  95]
          +0.007*[#  34]+0.007*[#  32]+0.007*[#  18]+0.007*[# 116]+0.007*[#  98]
          +0.005*[#   7]+0.005*[#  45]+0.004*[# 104]+0.004*[# 115]+0.003*[#  77]
          +0.002*[# 113]+0.002*[# 107]+0.002*[#  44]+0.002*[#  36]+0.001*[#  62]
          +0.001*[# 108]+0.001*[#  51]+0.001*[#  60]+0.001*[#  35]+0.001*[#  71]
          
    |psi|^2 = 0.996
==== e(  16) =    -8.54237 eV ==== 
     psi = 0.091*[#  79]+0.091*[#  14]+0.071*[# 115]+0.071*[#  32]+0.065*[#  41]
          +0.064*[#  24]+0.052*[#  96]+0.051*[# 104]+0.036*[#  16]+0.030*[#  36]
          +0.029*[#  18]+0.025*[#  33]+0.024*[#  43]+0.020*[# 108]+0.019*[#  45]
          +0.019*[#  54]+0.017*[#  51]+0.017*[#   6]+0.017*[# 105]+0.015*[#   7]
          +0.015*[#  52]+0.014*[#  34]+0.014*[#   9]+0.013*[# 106]+0.011*[#  81]
          +0.008*[#  17]+0.008*[#  35]+0.007*[#  25]+0.006*[#  44]+0.005*[#  77]
          +0.005*[#  97]+0.005*[# 113]+0.005*[#  53]+0.005*[# 107]+0.005*[#  15]
          +0.005*[# 117]+0.004*[#  23]+0.004*[#  95]+0.004*[#  42]+0.004*[#   8]
          +0.003*[#  80]+0.002*[#  63]+0.002*[# 116]+0.001*[#  26]+0.001*[#  72]
          +0.001*[#  78]
    |psi|^2 = 0.996
==== e(  17) =    -8.51888 eV ==== 
     psi = 0.092*[#  25]+0.090*[#  78]+0.073*[#  54]+0.059*[#  16]+0.056*[#  97]
          +0.054*[# 114]+0.049*[#  33]+0.037*[#  36]+0.037*[#  18]+0.028*[#  45]
          +0.028*[#  50]+0.027*[# 108]+0.025*[#  35]+0.023*[#   5]+0.022*[#  43]
          +0.020*[#   9]+0.019*[#  79]+0.018*[#  17]+0.018*[#  24]+0.018*[# 105]
          +0.013*[# 107]+0.013*[#   7]+0.010*[#  10]+0.010*[#  19]+0.010*[#  28]
          +0.010*[#  46]+0.010*[#  52]+0.010*[#  73]+0.009*[#  44]+0.009*[# 115]
          +0.009*[#  61]+0.008*[#   6]+0.008*[#  60]+0.007*[#  96]+0.006*[#  63]
          +0.006*[# 106]+0.005*[#  42]+0.005*[#  51]+0.004*[#  80]+0.004*[#  55]
          +0.004*[#  23]+0.002*[#  26]+0.002*[#  32]+0.002*[#  65]+0.002*[#  77]
          +0.002*[#  82]+0.002*[#  83]+0.002*[#  67]+0.002*[#  85]+0.002*[#  66]
          +0.001*[#  84]+0.001*[# 117]
    |psi|^2 = 0.998
==== e(  18) =    -8.49615 eV ==== 
     psi = 0.099*[#  34]+0.095*[#  15]+0.071*[#  27]+0.071*[#  81]+0.054*[#  51]
          +0.050*[#  52]+0.030*[#  17]+0.030*[#  55]+0.025*[#  23]+0.025*[#  35]
          +0.022*[#  77]+0.021*[#  65]+0.020*[#  26]+0.020*[#  83]+0.018*[#  79]
          +0.017*[#  67]+0.016*[#   1]+0.016*[#  37]+0.016*[#  80]+0.016*[#  91]
          +0.016*[# 100]+0.016*[# 109]+0.016*[#  85]+0.015*[#  82]+0.014*[#  54]
          +0.014*[#  66]+0.013*[#  84]+0.011*[#  24]+0.011*[#  50]+0.008*[#   5]
          +0.007*[#  96]+0.007*[# 115]+0.006*[#  99]+0.006*[#  61]+0.005*[#  60]
          +0.005*[# 117]+0.004*[#  43]+0.004*[# 104]+0.004*[#  41]+0.004*[#  44]
          +0.004*[# 105]+0.004*[#  63]+0.004*[#   9]+0.004*[#  32]+0.004*[# 107]
          +0.003*[# 106]+0.003*[# 116]+0.003*[#  18]+0.003*[#   2]+0.003*[#  39]
          +0.003*[#  56]+0.003*[# 103]+0.003*[#  78]+0.003*[#  98]+0.002*[#  36]
          +0.002*[#  42]+0.002*[#   6]+0.002*[#  58]+0.002*[#  93]+0.002*[# 112]
          +0.002*[#   7]+0.002*[#  57]+0.001*[#  94]+0.001*[# 111]+0.001*[#  10]
          +0.001*[#  14]+0.001*[#  19]+0.001*[#  28]+0.001*[#  38]+0.001*[#  46]
          +0.001*[#  73]+0.001*[# 101]
    |psi|^2 = 0.997
==== e(  19) =    -8.41399 eV ==== 
     psi = 0.101*[#  62]+0.078*[#  61]+0.069*[#  60]+0.068*[#   6]+0.065*[#   7]
          +0.053*[#  51]+0.052*[# 113]+0.050*[#  52]+0.050*[#  98]+0.048*[# 116]
          +0.046*[#  95]+0.040*[#  77]+0.038*[#  45]+0.034*[#  23]+0.033*[# 108]
          +0.029*[#  26]+0.028*[#  80]+0.017*[#  18]+0.014*[#  36]+0.012*[# 104]
          +0.012*[#  41]+0.006*[#  24]+0.005*[#  79]+0.004*[#   8]+0.005*[# 100]
          +0.004*[#  37]+0.003*[# 114]+0.003*[#  96]+0.002*[# 115]+0.002*[#  10]
          +0.002*[#  28]+0.002*[#  17]+0.002*[#  91]+0.002*[#  14]+0.002*[#  32]
          +0.002*[#  53]+0.002*[#  97]+0.002*[# 107]+0.002*[# 109]+0.001*[#  81]
          
    |psi|^2 = 0.998
==== e(  20) =    -8.41394 eV ==== 
     psi = 0.123*[#  63]+0.065*[#  59]+0.061*[#  44]+0.060*[# 107]+0.045*[# 113]
          +0.043*[# 108]+0.043*[#  95]+0.039*[#  36]+0.039*[#  60]+0.036*[#  35]
          +0.035*[#  17]+0.033*[#  42]+0.032*[#  45]+0.032*[#   5]+0.031*[#  18]
          +0.030*[#  23]+0.030*[#  77]+0.027*[# 106]+0.026*[#  97]+0.025*[#  15]
          +0.023*[#  61]+0.022*[# 114]+0.020*[#  34]+0.009*[#  25]+0.006*[#  78]
          +0.006*[#  96]+0.005*[#   1]+0.004*[#  26]+0.004*[#  50]+0.003*[#   6]
          +0.003*[#   7]+0.003*[# 109]+0.003*[#  51]+0.003*[#  80]+0.003*[#  91]
          +0.003*[# 115]+0.002*[#  46]+0.002*[#  52]+0.002*[#  16]+0.002*[#  24]
          +0.002*[#  33]+0.002*[#  73]+0.002*[#  19]+0.001*[#  43]+0.001*[#  99]
          +0.001*[# 105]
    |psi|^2 = 0.998
==== e(  21) =    -8.39927 eV ==== 
     psi = 0.128*[#  62]+0.074*[#  79]+0.066*[#  24]+0.055*[#  27]+0.049*[#  81]
          +0.048*[#  60]+0.047*[#  99]+0.040*[# 117]+0.040*[#  61]+0.038*[# 114]
          +0.036*[#  15]+0.035*[#  34]+0.033*[#  97]+0.030*[#  16]+0.030*[#  33]
          +0.023*[# 106]+0.021*[#  42]+0.016*[#  41]+0.014*[# 115]+0.014*[#  96]
          +0.013*[#  52]+0.013*[# 104]+0.012*[# 108]+0.012*[#  45]+0.011*[#  51]
          +0.010*[#   8]+0.010*[#  53]+0.007*[#   6]+0.007*[#   7]+0.006*[#  84]
          +0.005*[#  71]+0.005*[#  85]+0.004*[#  25]+0.004*[#  44]+0.003*[# 107]
          +0.003*[# 116]+0.002*[#  23]+0.002*[#  36]+0.002*[#  66]+0.002*[#  98]
          +0.002*[#  17]+0.002*[#  67]+0.002*[#  69]+0.002*[#  18]+0.002*[#  78]
          +0.002*[#  19]+0.002*[#  70]+0.002*[#  73]
    |psi|^2 = 0.996
==== e(  22) =    -8.39918 eV ==== 
     psi = 0.156*[#  59]+0.085*[#   5]+0.063*[#  44]+0.062*[# 107]+0.054*[#  51]
          +0.054*[#  52]+0.052*[#  63]+0.043*[#  34]+0.032*[#  15]+0.024*[#  36]
          +0.024*[#  18]+0.021*[#  95]+0.021*[#  81]+0.020*[#  17]+0.019*[#  27]
          +0.018*[# 113]+0.015*[#  54]+0.015*[#  35]+0.014*[#  50]+0.014*[#  14]
          +0.012*[#  32]+0.011*[#   6]+0.011*[#  80]+0.010*[#  16]+0.009*[#  26]
          +0.009*[#  77]+0.008*[#  33]+0.008*[# 106]+0.007*[#  23]+0.007*[#   7]
          +0.006*[#  68]+0.006*[#  83]+0.005*[#  42]+0.005*[# 116]+0.005*[#  25]
          +0.005*[#  61]+0.005*[#  98]+0.004*[# 114]+0.004*[# 115]+0.003*[#  41]
          +0.003*[# 104]+0.003*[#  96]+0.003*[#  78]+0.003*[#  60]+0.002*[#  65]
          +0.002*[#  84]+0.002*[#  45]+0.002*[#  72]+0.002*[#  85]+0.002*[#  97]
          +0.002*[#  46]+0.002*[# 105]+0.002*[#  24]+0.002*[# 108]+0.001*[#  10]
          +0.001*[#  28]+0.001*[#  43]
    |psi|^2 = 0.996
==== e(  23) =    -8.34580 eV ==== 
     psi = 0.134*[#  78]+0.067*[#  36]+0.058*[#  35]+0.057*[# 114]+0.049*[#  25]
          +0.046*[#  50]+0.035*[# 105]+0.033*[#  17]+0.031*[#   8]+0.030*[#  85]
          +0.029*[# 108]+0.028*[#  96]+0.027*[#  33]+0.025*[#  41]+0.020*[#  23]
          +0.020*[#  27]+0.018*[#  54]+0.018*[#  52]+0.015*[#  77]+0.014*[#  53]
          +0.013*[#  15]+0.013*[# 117]+0.012*[#  83]+0.012*[#  51]+0.012*[#  97]
          +0.011*[#  95]+0.011*[#   7]+0.010*[#   9]+0.011*[#  44]+0.009*[#  14]
          +0.008*[#  43]+0.008*[#   5]+0.007*[#  18]+0.007*[#  34]+0.007*[# 106]
          +0.007*[#  99]+0.006*[# 107]+0.006*[#  32]+0.005*[#  67]+0.005*[#  42]
          +0.005*[# 115]+0.004*[#  81]+0.004*[#  26]+0.004*[#  28]+0.003*[#  73]
          +0.003*[#   6]+0.003*[#  84]+0.003*[#  71]+0.002*[#  68]+0.002*[#  80]
          +0.002*[#  40]+0.002*[#  65]+0.002*[#   3]+0.002*[#  45]+0.002*[#  46]
          +0.001*[#  69]+0.001*[# 104]+0.001*[#  59]+0.001*[#  62]+0.001*[# 113]
          +0.001*[#  19]
    |psi|^2 = 0.997
==== e(  24) =    -8.34565 eV ==== 
     psi = 0.100*[#  25]+0.075*[#  50]+0.068*[#  17]+0.061*[#  18]+0.052*[#  35]
          +0.051*[#  97]+0.033*[#  43]+0.033*[#  77]+0.032*[#  45]+0.032*[#  16]
          +0.031*[#  23]+0.031*[#  54]+0.030*[#  84]+0.027*[# 115]+0.023*[#  78]
          +0.020*[# 104]+0.018*[#   8]+0.017*[#   9]+0.016*[#  81]+0.015*[#  99]
          +0.015*[#  83]+0.014*[# 107]+0.012*[# 113]+0.012*[#   5]+0.012*[#   6]
          +0.011*[# 117]+0.010*[#  51]+0.009*[#  34]+0.009*[#   7]+0.009*[# 106]
          +0.008*[#  42]+0.008*[#  53]+0.006*[# 105]+0.006*[#  14]+0.006*[#  44]
          +0.005*[#  80]+0.005*[#  26]+0.005*[#  66]+0.005*[#  32]+0.005*[#  95]
          +0.004*[#  15]+0.004*[#  10]+0.004*[# 114]+0.004*[#  27]+0.003*[# 108]
          +0.003*[#  36]+0.003*[#  52]+0.003*[#  68]+0.003*[#  19]+0.003*[#  65]
          +0.002*[#  46]+0.002*[# 102]+0.002*[#  71]+0.001*[#  79]+0.001*[#   4]
          +0.001*[#  59]+0.001*[#  70]+0.001*[#  72]+0.001*[# 110]+0.001*[#  96]
          +0.001*[# 111]
    |psi|^2 = 0.997
==== e(  25) =    -8.27538 eV ==== 
     psi = 0.123*[#  23]+0.101*[#  52]+0.098*[#  77]+0.089*[#  51]+0.054*[#  34]
          +0.047*[# 106]+0.046*[#  95]+0.039*[#  15]+0.039*[#  42]+0.037*[# 113]
          +0.034*[#  26]+0.030*[#   7]+0.025*[#  80]+0.025*[#  62]+0.021*[#   6]
          +0.020*[#  60]+0.016*[#  61]+0.015*[#  53]+0.011*[#  16]+0.010*[#  25]
          +0.010*[#   8]+0.009*[#  33]+0.009*[# 115]+0.008*[#  43]+0.008*[#  98]
          +0.006*[#  35]+0.006*[# 116]+0.006*[# 105]+0.005*[#  78]+0.005*[# 117]
          +0.003*[#  44]+0.003*[#  97]+0.002*[#  36]+0.002*[#  96]+0.002*[#  41]
          +0.002*[#  71]+0.002*[#  79]+0.002*[#  81]+0.002*[# 104]+0.002*[#  69]
          +0.002*[#  32]+0.002*[#  39]+0.001*[#  14]+0.001*[#  70]+0.002*[# 103]
          +0.001*[#  45]+0.001*[#  99]+0.001*[#  37]
    |psi|^2 = 0.998
==== e(  26) =    -8.27518 eV ==== 
     psi = 0.090*[#  36]+0.085*[#  17]+0.080*[#  18]+0.075*[#  35]+0.052*[#  77]
          +0.033*[#  15]+0.031*[#  99]+0.031*[# 107]+0.031*[#  44]+0.030*[#  51]
          +0.030*[#  63]+0.029*[#   6]+0.027*[# 117]+0.025*[#  27]+0.025*[# 108]
          +0.024*[#  80]+0.023*[#  81]+0.021*[#  24]+0.020*[#  23]+0.020*[#  45]
          +0.020*[#  79]+0.018*[#   7]+0.017*[#  26]+0.016*[#  59]+0.016*[#  96]
          +0.013*[# 115]+0.012*[#  34]+0.012*[#  52]+0.011*[# 113]+0.009*[#  61]
          +0.007*[#  42]+0.006*[#  60]+0.006*[# 116]+0.005*[#  98]+0.004*[#   5]
          +0.004*[#  54]+0.004*[#  14]+0.003*[#  41]+0.003*[#  72]+0.003*[#  95]
          +0.002*[#   2]+0.002*[#   9]+0.002*[# 105]+0.002*[#  32]+0.001*[#  68]
          +0.001*[# 104]+0.001*[#   1]+0.001*[#  47]+0.001*[#  94]
    |psi|^2 = 0.998
==== e(  27) =    -8.17285 eV ==== 
     psi = 0.082*[#  26]+0.076*[#  80]+0.069*[#  77]+0.063*[#  23]+0.058*[#  16]
          +0.053*[#  33]+0.037*[#  51]+0.036*[#  18]+0.035*[#  36]+0.034*[#  52]
          +0.028*[#  24]+0.026*[#  81]+0.020*[#  27]+0.019*[#  42]+0.018*[# 106]
          +0.018*[#  19]+0.018*[#  79]+0.018*[#  17]+0.018*[#  84]+0.018*[#  73]
          +0.017*[#  35]+0.016*[#  85]+0.014*[# 117]+0.014*[#  99]+0.012*[#  71]
          +0.010*[#   6]+0.010*[#   7]+0.009*[#  32]+0.009*[# 115]+0.008*[#  53]
          +0.007*[#  10]+0.007*[#  96]+0.007*[#   8]+0.007*[#  14]+0.007*[#  15]
          +0.006*[#  28]+0.006*[# 107]+0.005*[#  34]+0.005*[#  97]+0.005*[#  44]
          +0.004*[#  48]+0.004*[#  49]+0.004*[#  69]+0.004*[#  30]+0.004*[# 114]
          +0.004*[#  13]+0.004*[#  70]+0.003*[#  78]+0.002*[#  98]+0.002*[#  11]
          +0.002*[#  25]+0.002*[#  41]+0.002*[#  29]+0.002*[#  66]+0.002*[#  67]
          +0.002*[#  94]+0.002*[# 111]+0.001*[#  38]+0.002*[# 104]+0.001*[#  43]
          +0.001*[# 116]+0.001*[#  62]+0.001*[#  91]+0.001*[# 101]+0.001*[# 109]
          +0.001*[#   3]+0.001*[#   4]+0.001*[#  39]+0.001*[# 103]
    |psi|^2 = 0.999
==== e(  28) =    -8.17265 eV ==== 
     psi = 0.155*[#  54]+0.076*[#  32]+0.071*[#  80]+0.070*[#  15]+0.064*[#  26]
          +0.058*[#  34]+0.058*[#  14]+0.023*[#  16]+0.022*[#  52]+0.022*[#  51]
          +0.021*[#  33]+0.021*[#  95]+0.021*[# 113]+0.020*[#  83]+0.020*[#  46]
          +0.014*[#  68]+0.013*[#  28]+0.013*[#   6]+0.013*[#   7]+0.012*[#  10]
          +0.012*[# 108]+0.012*[#  45]+0.011*[#  24]+0.010*[#  79]+0.009*[#  36]
          +0.008*[#  44]+0.008*[#  25]+0.007*[#  77]+0.007*[#  18]+0.007*[#  23]
          +0.007*[#  85]+0.007*[#  84]+0.007*[#  50]+0.006*[# 107]+0.005*[#  78]
          +0.005*[#  43]+0.005*[# 105]+0.005*[#  72]+0.004*[# 106]+0.004*[#  20]
          +0.004*[#  75]+0.004*[#  22]+0.004*[#  74]+0.003*[#  98]+0.003*[# 116]
          +0.003*[#  42]+0.002*[#  40]+0.002*[#   9]+0.002*[#  13]+0.002*[#  73]
          +0.002*[# 102]+0.002*[#  30]+0.002*[#  65]+0.002*[#  92]+0.002*[# 110]
          +0.002*[#   2]+0.002*[#  19]+0.002*[# 115]+0.002*[#  97]+0.001*[#  59]
          +0.001*[#   1]+0.001*[#  12]+0.001*[#  31]
    |psi|^2 = 0.999
==== e(  29) =    -8.15096 eV ==== 
     psi = 0.130*[#  61]+0.111*[#  60]+0.088*[#  63]+0.050*[#   9]+0.046*[# 116]
          +0.045*[#  98]+0.036*[# 104]+0.033*[#  55]+0.029*[#  41]+0.027*[#  43]
          +0.024*[# 105]+0.019*[#   1]+0.019*[#  37]+0.019*[#  91]+0.019*[# 100]
          +0.019*[# 109]+0.014*[#   5]+0.013*[#  96]+0.013*[# 113]+0.011*[#  95]
          +0.010*[#  42]+0.010*[#  50]+0.009*[# 115]+0.009*[#  78]+0.008*[#  17]
          +0.008*[#  35]+0.008*[#  25]+0.008*[#  83]+0.008*[#  82]+0.007*[# 106]
          +0.006*[#  85]+0.005*[#  27]+0.005*[#  10]+0.005*[#  19]+0.005*[#  28]
          +0.005*[#  46]+0.005*[#  73]+0.005*[#  84]+0.005*[#   2]+0.005*[#  39]
          +0.005*[#  81]+0.005*[# 103]+0.004*[#  34]+0.004*[#  59]+0.004*[#  15]
          +0.003*[#  54]+0.003*[#   6]+0.003*[#   7]+0.003*[#  11]+0.003*[#  29]
          +0.003*[#  64]+0.003*[#  94]+0.002*[# 111]+0.002*[#  45]+0.002*[#  56]
          +0.002*[#  76]+0.002*[#  93]+0.002*[#  18]+0.002*[#  20]+0.002*[#  21]
          +0.002*[#  36]+0.002*[#  49]+0.002*[#  74]+0.002*[# 112]+0.002*[#  13]
          +0.002*[#  48]+0.002*[#  58]+0.002*[#  47]+0.001*[#  30]+0.002*[#  57]
          +0.001*[#  22]+0.001*[#  23]+0.001*[#  51]+0.001*[#  31]+0.001*[#  75]
          +0.001*[# 108]+0.001*[#  12]+0.001*[# 101]+0.001*[# 110]
    |psi|^2 = 0.999
==== e(  30) =    -8.12840 eV ==== 
     psi = 0.065*[#   5]+0.064*[#  44]+0.063*[# 107]+0.060*[# 114]+0.053*[#  99]
          +0.051*[#  97]+0.048*[# 106]+0.048*[# 117]+0.046*[#  42]+0.033*[#   9]
          +0.031*[#  61]+0.027*[#  60]+0.023*[#  70]+0.021*[#  63]+0.020*[#  69]
          +0.019*[#   6]+0.018*[#  95]+0.016*[#  72]+0.012*[#   7]+0.012*[#  82]
          +0.012*[# 113]+0.011*[#  10]+0.011*[#  28]+0.011*[#  19]+0.011*[#  46]
          +0.011*[#  73]+0.010*[# 108]+0.010*[#  45]+0.009*[#  54]+0.009*[#  43]
          +0.009*[#  83]+0.007*[# 105]+0.007*[#  85]+0.006*[#  84]+0.006*[# 115]
          +0.005*[#  16]+0.005*[#  55]+0.005*[#  78]+0.005*[#  25]+0.005*[#  33]
          +0.004*[#   1]+0.004*[#  37]+0.004*[#  91]+0.004*[# 100]+0.004*[# 109]
          +0.004*[#  98]+0.003*[#  65]+0.003*[#  96]+0.003*[# 116]+0.003*[#  80]
          +0.003*[#  67]+0.002*[#  26]+0.002*[#  35]+0.002*[#  66]+0.002*[#  76]
          +0.002*[#  11]+0.002*[#  21]+0.002*[#  29]+0.002*[#  17]+0.002*[#  23]
          +0.002*[#   2]+0.002*[#  15]+0.002*[#  32]+0.002*[#  49]+0.001*[#  34]
          +0.001*[#  48]+0.001*[#  77]+0.002*[#  92]+0.002*[# 110]+0.001*[#  38]
          +0.001*[#  94]+0.001*[# 101]+0.001*[# 103]+0.001*[#   4]+0.001*[#  36]
          +0.001*[#  39]+0.001*[#  40]+0.001*[#  64]+0.001*[#  24]+0.001*[#  50]
          +0.001*[# 111]
    |psi|^2 = 0.998
==== e(  31) =    -8.04392 eV ==== 
     psi = 0.061*[#  15]+0.058*[#  51]+0.056*[#  36]+0.054*[#  60]+0.047*[#  80]
          +0.043*[#   8]+0.041*[#  24]+0.037*[#  69]+0.033*[#  62]+0.029*[#  41]
          +0.027*[#  53]+0.026*[# 116]+0.025*[#  14]+0.025*[#  99]+0.024*[#  96]
          +0.024*[#  26]+0.022*[#  71]+0.022*[#  63]+0.022*[# 106]+0.021*[#  33]
          +0.018*[#  42]+0.018*[# 105]+0.017*[#  27]+0.016*[# 113]+0.015*[#  72]
          +0.015*[#  95]+0.015*[#  81]+0.014*[#  79]+0.011*[#  34]+0.010*[#  45]
          +0.010*[#  77]+0.010*[# 108]+0.010*[#  59]+0.010*[# 107]+0.009*[# 114]
          +0.008*[#  61]+0.007*[#   7]+0.007*[#  25]+0.006*[#  23]+0.006*[#  68]
          +0.005*[#   5]+0.005*[#  70]+0.005*[#   6]+0.005*[# 115]+0.004*[#  78]
          +0.004*[# 104]+0.004*[#  18]+0.004*[#  50]+0.004*[#  54]+0.003*[#   9]
          +0.003*[#  35]+0.003*[#  10]+0.003*[#  73]+0.002*[#  32]+0.002*[# 117]
          +0.002*[#  97]+0.001*[#  37]+0.001*[# 109]+0.001*[#  46]+0.001*[#  92]
          
    |psi|^2 = 0.999
==== e(  32) =    -8.04385 eV ==== 
     psi = 0.065*[#  52]+0.056*[#  18]+0.047*[#  34]+0.043*[#  61]+0.041*[# 104]
          +0.040*[#  63]+0.039*[#  26]+0.038*[#  32]+0.034*[# 117]+0.030*[#  81]
          +0.029*[#  70]+0.028*[#  98]+0.028*[#  79]+0.028*[#  72]+0.024*[#  59]
          +0.024*[#  27]+0.023*[#   8]+0.021*[#  16]+0.020*[# 115]+0.019*[#  41]
          +0.019*[#  62]+0.018*[#  77]+0.017*[#  23]+0.016*[#  68]+0.016*[#  43]
          +0.013*[#  53]+0.013*[#  97]+0.013*[#  71]+0.012*[#  14]+0.012*[#  42]
          +0.012*[#   6]+0.012*[#   7]+0.010*[#   5]+0.010*[#  25]+0.010*[#  44]
          +0.010*[#  80]+0.009*[#  95]+0.008*[#  45]+0.008*[# 106]+0.008*[#  78]
          +0.007*[#  54]+0.006*[#  99]+0.006*[#  33]+0.005*[# 113]+0.005*[# 108]
          +0.005*[# 114]+0.004*[# 105]+0.004*[#  17]+0.004*[#   9]+0.003*[#  50]
          +0.003*[#  19]+0.003*[#  51]+0.002*[#  28]+0.002*[#  46]+0.002*[#  24]
          +0.001*[#  91]+0.001*[#  40]
    |psi|^2 = 0.999
==== e(  33) =    -8.01002 eV ==== 
     psi = 0.120*[#   9]+0.073*[#  42]+0.066*[# 106]+0.063*[# 104]+0.055*[# 116]
          +0.050*[#  59]+0.043*[#  98]+0.043*[#  41]+0.041*[#  77]+0.041*[#  23]
          +0.033*[#   7]+0.029*[#   6]+0.026*[#  36]+0.026*[#  18]+0.022*[#  68]
          +0.020*[# 105]+0.019*[#  51]+0.018*[#  43]+0.018*[#  52]+0.017*[#  63]
          +0.012*[#   1]+0.012*[#   5]+0.009*[# 100]+0.008*[#  17]+0.008*[#  37]
          +0.007*[#  72]+0.007*[#  95]+0.006*[#  14]+0.005*[#  32]+0.005*[#  56]
          +0.005*[#  34]+0.005*[#  26]+0.005*[#  50]+0.004*[#  35]+0.004*[# 113]
          +0.004*[#  80]+0.004*[#  96]+0.003*[#  33]+0.003*[#  16]+0.003*[#  25]
          +0.003*[# 115]+0.003*[#  92]+0.002*[# 110]+0.002*[#  78]+0.002*[#  97]
          +0.002*[#  40]+0.002*[#  13]+0.002*[#  15]+0.002*[#  58]+0.002*[#  20]
          +0.002*[#  30]+0.002*[#  74]+0.002*[#  94]+0.002*[# 102]+0.002*[# 111]
          +0.002*[#  57]+0.002*[# 109]+0.001*[#  46]+0.001*[# 117]+0.001*[#  60]
          +0.001*[#  61]+0.001*[#  79]+0.001*[# 114]+0.001*[#  27]+0.001*[#  47]
          
    |psi|^2 = 0.999
==== e(  34) =    -8.00974 eV ==== 
     psi = 0.091*[#  98]+0.077*[# 116]+0.066*[# 113]+0.059*[#  95]+0.041*[#  62]
          +0.033*[#  43]+0.032*[#  15]+0.030*[#  45]+0.029*[# 108]+0.028*[#  34]
          +0.027*[# 105]+0.025*[#   6]+0.025*[# 117]+0.020*[#  52]+0.020*[#  99]
          +0.019*[#   7]+0.019*[#  51]+0.018*[#  71]+0.017*[#  35]+0.016*[#  41]
          +0.015*[#  81]+0.015*[#  60]+0.015*[# 104]+0.014*[#  96]+0.014*[#  17]
          +0.013*[#  27]+0.013*[#  61]+0.013*[#  44]+0.013*[#  25]+0.013*[# 107]
          +0.012*[#  53]+0.012*[#  42]+0.012*[#  91]+0.011*[#  26]+0.011*[#  78]
          +0.011*[# 109]+0.010*[#  80]+0.007*[# 115]+0.007*[#  69]+0.006*[# 106]
          +0.006*[#  70]+0.006*[#  79]+0.005*[#  37]+0.005*[#  57]+0.004*[#  24]
          +0.004*[#  58]+0.004*[# 100]+0.002*[#   3]+0.002*[#   4]+0.002*[# 102]
          +0.002*[#  36]+0.002*[#  38]+0.001*[# 101]+0.001*[#  19]+0.001*[#  22]
          +0.001*[#  40]+0.001*[#  75]+0.001*[#  11]+0.001*[#  49]+0.001*[#  73]
          
    |psi|^2 = 0.999
==== e(  35) =    -7.74186 eV ==== 
     psi = 0.056*[#  54]+0.051*[#  16]+0.050*[#  97]+0.044*[#   7]+0.044*[#  33]
          +0.044*[# 106]+0.043*[# 114]+0.039*[#  70]+0.039*[#  42]+0.036*[#   6]
          +0.034*[#  45]+0.033*[#  69]+0.033*[#  24]+0.033*[#  79]+0.033*[# 108]
          +0.032*[# 115]+0.030*[#  43]+0.026*[#  72]+0.025*[# 117]+0.025*[# 105]
          +0.025*[#  96]+0.023*[#  99]+0.019*[#  25]+0.017*[#  80]+0.016*[#   9]
          +0.016*[#  32]+0.016*[#  78]+0.014*[#  14]+0.012*[#  26]+0.009*[#  52]
          +0.008*[#  36]+0.008*[#  27]+0.007*[#  51]+0.007*[#  18]+0.007*[#   5]
          +0.006*[#  81]+0.005*[#  34]+0.004*[#  55]+0.003*[#  98]+0.003*[#  15]
          +0.003*[#  95]+0.003*[# 113]+0.002*[#  23]+0.002*[#  77]+0.001*[#  68]
          +0.001*[# 107]+0.001*[# 116]+0.001*[#  50]
    |psi|^2 = 0.999
==== e(  36) =    -7.72953 eV ==== 
     psi = 0.075*[#  23]+0.072*[#  77]+0.060*[# 113]+0.059*[#  95]+0.058*[#  53]
          +0.049*[#   8]+0.043*[#  17]+0.043*[#  35]+0.039*[# 107]+0.039*[#  44]
          +0.028*[#  51]+0.025*[#  14]+0.024*[#   6]+0.024*[#  41]+0.023*[#  52]
          +0.023*[#  15]+0.022*[#  81]+0.022*[#  34]+0.021*[#  32]+0.020*[#   7]
          +0.019*[#  99]+0.018*[#  27]+0.018*[# 117]+0.018*[# 106]+0.018*[#  42]
          +0.018*[# 104]+0.014*[#  36]+0.012*[# 108]+0.011*[#  18]+0.009*[#  26]
          +0.008*[#  33]+0.008*[#  80]+0.007*[# 105]+0.006*[# 115]+0.006*[#  45]
          +0.006*[#  79]+0.006*[# 116]+0.005*[#  96]+0.005*[#  16]+0.005*[#  98]
          +0.005*[#  43]+0.004*[#  24]
    |psi|^2 = 0.999
==== e(  37) =    -7.72324 eV ==== 
     psi = 0.095*[#  62]+0.081*[#  60]+0.079*[#   6]+0.072*[#   7]+0.070*[# 107]
          +0.063*[#  61]+0.057*[#  44]+0.055*[# 114]+0.044*[#  97]+0.041*[#  98]
          +0.039*[#  96]+0.029*[# 116]+0.027*[#  95]+0.027*[# 115]+0.025*[# 113]
          +0.020*[# 105]+0.019*[#  71]+0.017*[#   8]+0.017*[#  69]+0.014*[#  43]
          +0.013*[#  53]+0.013*[#  70]+0.007*[# 104]+0.007*[#  45]+0.007*[#  41]
          +0.006*[#  24]+0.006*[#  42]+0.005*[#  78]+0.004*[#  79]+0.003*[#  25]
          +0.003*[#  33]+0.003*[#  17]+0.003*[#  27]+0.002*[# 106]+0.002*[#  23]
          +0.002*[#  35]+0.002*[#  32]+0.002*[#  81]+0.002*[#  16]+0.001*[#  63]
          +0.001*[#  14]+0.001*[#  18]+0.001*[#  77]
    |psi|^2 = 0.999
==== e(  38) =    -7.72291 eV ==== 
     psi = 0.118*[#  63]+0.112*[# 108]+0.104*[#  45]+0.064*[#   5]+0.062*[#  59]
          +0.041*[# 113]+0.035*[#  61]+0.032*[#  95]+0.028*[#  97]+0.028*[#  99]
          +0.026*[#  42]+0.026*[# 117]+0.025*[# 116]+0.025*[#  72]+0.023*[#  60]
          +0.022*[# 106]+0.021*[#   9]+0.019*[# 114]+0.016*[#  44]+0.015*[#  98]
          +0.014*[#  43]+0.013*[# 115]+0.013*[#  68]+0.011*[# 105]+0.009*[#  41]
          +0.008*[#  14]+0.007*[#  70]+0.007*[# 104]+0.006*[#  96]+0.005*[#  81]
          +0.005*[#  27]+0.005*[#  50]+0.005*[#  69]+0.004*[#  32]+0.004*[#  16]
          +0.004*[#  36]+0.004*[# 107]+0.003*[#   7]+0.003*[#  79]+0.003*[#  18]
          +0.003*[#  25]+0.003*[#  33]+0.002*[#  35]+0.002*[#  17]+0.002*[#  24]
          +0.002*[#  54]+0.002*[#  78]+0.001*[#  62]
    |psi|^2 = 0.999
==== e(  39) =    -7.70979 eV ==== 
     psi = 0.095*[#  17]+0.071*[#  53]+0.065*[#  25]+0.053*[#  35]+0.050*[#  78]
          +0.040*[#   8]+0.032*[#  27]+0.032*[#  71]+0.029*[# 107]+0.028*[#  79]
          +0.027*[#  44]+0.025*[#  62]+0.023*[#  32]+0.023*[# 116]+0.023*[#  98]
          +0.022*[#  77]+0.020*[#  33]+0.019*[#  50]+0.019*[# 115]+0.018*[#  18]
          +0.017*[#  43]+0.016*[#  26]+0.014*[#  80]+0.014*[# 105]+0.013*[#  70]
          +0.013*[#  51]+0.012*[#  34]+0.011*[#  96]+0.011*[# 106]+0.011*[# 104]
          +0.010*[#  61]+0.010*[#  69]+0.009*[#   6]+0.009*[#  24]+0.009*[#  84]
          +0.008*[# 113]+0.008*[#  60]+0.008*[#   7]+0.007*[#  68]+0.006*[#  52]
          +0.006*[#  99]+0.006*[#  59]+0.006*[# 114]+0.005*[#  97]+0.005*[#   5]
          +0.005*[#  42]+0.005*[#  95]+0.004*[#  16]+0.004*[#   9]+0.004*[#  72]
          +0.003*[#  41]+0.003*[# 117]+0.003*[#  63]+0.002*[#  85]+0.002*[# 108]
          +0.002*[#  14]+0.001*[#  45]+0.001*[#  83]
    |psi|^2 = 0.999
==== e(  40) =    -7.70942 eV ==== 
     psi = 0.103*[#  50]+0.067*[#  14]+0.058*[#  23]+0.052*[#  81]+0.046*[#  35]
          +0.043*[#  41]+0.040*[#  68]+0.040*[#  95]+0.037*[#  32]+0.034*[# 113]
          +0.034*[# 104]+0.032*[#  59]+0.029*[#  77]+0.029*[#  36]+0.029*[#   5]
          +0.027*[#  78]+0.024*[#  27]+0.020*[#  15]+0.020*[#  24]+0.017*[# 117]
          +0.015*[#  53]+0.015*[#  99]+0.013*[#   9]+0.012*[#  18]+0.012*[#  72]
          +0.011*[#  34]+0.010*[#  16]+0.009*[#  96]+0.009*[#   8]+0.009*[#  63]
          +0.008*[#  44]+0.007*[#  42]+0.007*[#  71]+0.006*[# 105]+0.006*[#  83]
          +0.006*[# 116]+0.006*[#  62]+0.006*[#  85]+0.005*[#  69]+0.005*[#  45]
          +0.005*[# 108]+0.005*[# 107]+0.004*[#  98]+0.004*[#  60]+0.004*[#  80]
          +0.003*[#  26]+0.002*[#  25]+0.002*[#  52]+0.002*[#   6]+0.001*[#  17]
          +0.001*[# 114]
    |psi|^2 = 0.999
==== e(  41) =    -7.68131 eV ==== 
     psi = 0.157*[#  97]+0.088*[#  25]+0.082*[#  43]+0.051*[#   7]+0.048*[#  44]
          +0.047*[# 114]+0.046*[#  16]+0.031*[#  45]+0.031*[# 115]+0.030*[# 108]
          +0.028*[# 113]+0.028*[#  78]+0.026*[#   9]+0.025*[#  18]+0.025*[#  62]
          +0.019*[# 107]+0.019*[#  52]+0.018*[#  17]+0.018*[#  79]+0.015*[#   5]
          +0.014*[#  54]+0.013*[#  96]+0.012*[#  59]+0.012*[#  61]+0.010*[#  24]
          +0.009*[#   6]+0.009*[#  50]+0.008*[# 106]+0.008*[# 116]+0.007*[#  60]
          +0.007*[# 105]+0.007*[#  36]+0.006*[#  42]+0.005*[#  15]+0.005*[#  63]
          +0.004*[#  33]+0.004*[#  84]+0.004*[#  77]+0.003*[#  98]+0.003*[#  35]
          +0.002*[#  80]+0.002*[#  32]+0.002*[#  71]+0.001*[#  53]+0.001*[# 104]
          +0.001*[#  27]+0.001*[#  34]
    |psi|^2 = 0.999
==== e(  42) =    -7.68100 eV ==== 
     psi = 0.109*[# 114]+0.074*[# 108]+0.069*[#  45]+0.066*[#   9]+0.064*[# 105]
          +0.060*[#  78]+0.046*[#   5]+0.043*[#  36]+0.042*[# 107]+0.036*[#  33]
          +0.034*[#  54]+0.034*[#   6]+0.033*[#  95]+0.032*[#  59]+0.024*[#  18]
          +0.023*[#  50]+0.021*[#  96]+0.021*[#  35]+0.019*[#  98]+0.016*[#  51]
          +0.015*[# 116]+0.011*[#  62]+0.010*[#  24]+0.009*[#  63]+0.007*[# 113]
          +0.007*[#  60]+0.006*[#  42]+0.005*[#  34]+0.005*[#  26]+0.004*[#  23]
          +0.004*[#  52]+0.003*[#  80]+0.003*[#  79]+0.003*[# 115]+0.003*[#  44]
          +0.003*[#  85]+0.003*[#  81]+0.003*[# 106]+0.002*[#  83]+0.002*[#  25]
          +0.002*[#  68]+0.002*[#  97]+0.002*[#  14]+0.001*[#  41]+0.001*[#  53]
          +0.001*[#  43]
    |psi|^2 = 0.999
==== e(  43) =    -7.49481 eV ==== 
     psi = 0.108*[#  50]+0.066*[#  26]+0.064*[#  80]+0.059*[#  32]+0.055*[#  78]
          +0.053*[#  14]+0.051*[#  25]+0.039*[#  18]+0.036*[#   9]+0.034*[#  35]
          +0.033*[#  36]+0.030*[#  17]+0.028*[#  82]+0.026*[#  43]+0.023*[# 105]
          +0.018*[#  83]+0.016*[# 116]+0.015*[#  54]+0.014*[#  85]+0.013*[#  96]
          +0.014*[#  98]+0.013*[# 104]+0.012*[#  84]+0.012*[# 115]+0.011*[#  24]
          +0.011*[#  77]+0.010*[#  41]+0.010*[#  15]+0.009*[#  52]+0.007*[#  97]
          +0.007*[#  79]+0.006*[#  23]+0.006*[# 114]+0.006*[#  16]+0.006*[#  33]
          +0.006*[#  34]+0.006*[#  51]+0.004*[#  70]+0.004*[# 113]+0.003*[#  69]
          +0.003*[#  95]+0.003*[#  10]+0.003*[#  19]+0.003*[#  28]+0.003*[#  46]
          +0.003*[#  73]+0.003*[#  72]+0.002*[#  27]+0.002*[#  29]+0.002*[# 108]
          +0.002*[#  11]+0.002*[#  76]+0.002*[#   1]+0.002*[#  21]+0.002*[#  37]
          +0.002*[#  64]+0.002*[#  91]+0.002*[# 100]+0.002*[# 109]+0.001*[#  45]
          +0.001*[#  48]+0.001*[#  49]
    |psi|^2 = 0.999
==== e(  44) =    -7.45792 eV ==== 
     psi = 0.182*[#  17]+0.168*[#  35]+0.109*[#  78]+0.089*[#  14]+0.076*[#  18]
          +0.058*[#  32]+0.042*[#  81]+0.041*[#  36]+0.033*[#  25]+0.026*[#  80]
          +0.023*[#  27]+0.020*[#  79]+0.013*[#  50]+0.009*[#  77]+0.008*[#  15]
          +0.008*[#  23]+0.007*[#  34]+0.007*[#  51]+0.006*[#  24]+0.005*[#  53]
          +0.004*[#  26]+0.004*[#  33]+0.004*[# 114]+0.004*[#  52]+0.004*[#  71]
          +0.004*[#  16]+0.004*[#  69]+0.003*[#  45]+0.003*[#   7]+0.003*[#  42]
          +0.003*[# 106]+0.002*[#  70]+0.002*[#  97]+0.002*[# 113]+0.002*[#  95]
          +0.002*[# 107]+0.001*[#   6]+0.001*[# 104]+0.001*[# 105]
    |psi|^2 = 0.999
==== e(  45) =    -7.45784 eV ==== 
     psi = 0.344*[#  50]+0.142*[#  25]+0.089*[#  78]+0.064*[#  26]+0.055*[#  27]
          +0.043*[#  80]+0.040*[#  24]+0.035*[#  32]+0.033*[#  36]+0.022*[#  79]
          +0.020*[#  35]+0.016*[#  81]+0.013*[#  34]+0.007*[#  14]+0.007*[#  18]
          +0.005*[# 108]+0.005*[#  15]+0.005*[#  72]+0.004*[#  97]+0.004*[#  23]
          +0.004*[#   5]+0.003*[#  77]+0.003*[#   6]+0.003*[#  45]+0.003*[#  98]
          +0.003*[#  68]+0.003*[# 116]+0.002*[#  51]+0.002*[#   7]+0.002*[#  70]
          +0.002*[# 114]+0.002*[# 115]+0.001*[#  17]
    |psi|^2 = 0.999
==== e(  46) =    -7.31299 eV ==== 
     psi = 0.121*[#  15]+0.107*[#  34]+0.062*[#  42]+0.053*[# 106]+0.046*[#  32]
          +0.042*[# 104]+0.040*[# 113]+0.037*[#  95]+0.036*[#  16]+0.034*[#  41]
          +0.034*[#  43]+0.032*[#  14]+0.030*[# 105]+0.030*[#  81]+0.029*[#  33]
          +0.029*[#  77]+0.028*[#  80]+0.025*[# 116]+0.024*[#  23]+0.024*[#  17]
          +0.022*[#  27]+0.022*[#  26]+0.020*[#  35]+0.018*[#  98]+0.009*[#   8]
          +0.005*[#  45]+0.005*[#   7]+0.004*[#   6]+0.004*[#  78]+0.002*[# 108]
          +0.002*[#  52]+0.002*[#  24]+0.002*[#  10]+0.002*[#  25]+0.001*[#  28]
          +0.002*[# 117]+0.001*[#  18]
    |psi|^2 = 0.999
==== e(  47) =    -7.31295 eV ==== 
     psi = 0.125*[#  54]+0.083*[#   9]+0.078*[#  26]+0.073*[#  98]+0.067*[#  80]
          +0.064*[# 116]+0.055*[#  51]+0.048*[#  52]+0.040*[#  27]+0.037*[#  81]
          +0.036*[#  23]+0.028*[#  77]+0.025*[#   6]+0.023*[#   7]+0.021*[# 117]
          +0.019*[# 104]+0.017*[#  99]+0.014*[#  41]+0.012*[#  34]+0.012*[#   5]
          +0.009*[#  78]+0.008*[#  44]+0.008*[#  95]+0.008*[#  33]+0.008*[# 107]
          +0.007*[#  25]+0.007*[#  96]+0.006*[#  15]+0.006*[# 113]+0.006*[#  16]
          +0.005*[#  35]+0.005*[# 108]+0.004*[#  17]+0.004*[#  32]+0.004*[#  45]
          +0.003*[# 115]+0.002*[#  18]+0.002*[#  36]+0.002*[#  46]+0.001*[#  19]
          +0.001*[#  72]+0.001*[#  73]
    |psi|^2 = 0.999
==== e(  48) =    -7.19159 eV ==== 
     psi = 0.085*[#  59]+0.076*[#  62]+0.064*[#  41]+0.057*[#  96]+0.055*[#   8]
          +0.053*[#  45]+0.052*[#  43]+0.051*[#  97]+0.048*[# 114]+0.048*[# 108]
          +0.041*[#  60]+0.036*[# 107]+0.029*[#   7]+0.024*[#  98]+0.023*[#   5]
          +0.022*[#  63]+0.021*[# 115]+0.021*[#  99]+0.021*[# 117]+0.014*[#  79]
          +0.014*[#   6]+0.012*[#   9]+0.011*[#  27]+0.010*[#  61]+0.009*[#  18]
          +0.008*[#  52]+0.008*[# 116]+0.007*[#  16]+0.007*[#  26]+0.006*[#  14]
          +0.006*[#  53]+0.005*[#  32]+0.005*[# 105]+0.005*[#  34]+0.005*[#  58]
          +0.004*[#  35]+0.004*[#  50]+0.003*[# 113]+0.002*[#  24]+0.002*[#  44]
          +0.002*[#  56]+0.002*[#  33]+0.002*[#  81]+0.002*[#  42]+0.001*[#  54]
          +0.001*[#  13]+0.001*[#  85]
    |psi|^2 = 0.999
==== e(  49) =    -7.19147 eV ==== 
     psi = 0.085*[#  59]+0.068*[# 105]+0.062*[#  62]+0.060*[# 115]+0.056*[# 104]
          +0.051*[#   8]+0.042*[# 108]+0.042*[#  45]+0.040*[# 114]+0.038*[#  61]
          +0.036*[#  97]+0.035*[#   5]+0.035*[#  63]+0.032*[#  44]+0.028*[# 116]
          +0.028*[#  96]+0.027*[# 117]+0.027*[#  99]+0.018*[#   6]+0.015*[#  24]
          +0.014*[#   9]+0.014*[#  60]+0.012*[#  98]+0.012*[#  43]+0.010*[#  81]
          +0.009*[#   7]+0.009*[#  33]+0.008*[#  36]+0.008*[#  51]+0.007*[#  80]
          +0.006*[#  53]+0.005*[#  14]+0.005*[#  32]+0.005*[#  57]+0.004*[#  17]
          +0.004*[# 107]+0.004*[#  15]+0.004*[#  95]+0.003*[#  16]+0.003*[#  50]
          +0.003*[#  79]+0.003*[# 113]+0.002*[#  56]+0.002*[#  27]+0.001*[#  54]
          +0.001*[#  30]+0.001*[#  84]
    |psi|^2 = 0.999
==== e(  50) =    -7.17373 eV ==== 
     psi = 0.098*[# 117]+0.063*[# 107]+0.058*[#  42]+0.054*[#  44]+0.046*[#  78]
          +0.045*[#  41]+0.043*[#  16]+0.037*[#   5]+0.035*[# 115]+0.035*[#  33]
          +0.033*[#   8]+0.032*[#  60]+0.029*[# 105]+0.024*[#  95]+0.023*[#   6]
          +0.023*[#  79]+0.023*[# 114]+0.022*[#  54]+0.020*[#  18]+0.020*[#  62]
          +0.019*[#  99]+0.019*[#  23]+0.016*[#  51]+0.016*[#  36]+0.014*[#  96]
          +0.013*[#  53]+0.013*[#  63]+0.013*[#  81]+0.011*[#  15]+0.011*[# 116]
          +0.009*[#  14]+0.008*[#  27]+0.006*[# 106]+0.006*[#  43]+0.006*[#  17]
          +0.005*[#  59]+0.005*[#  61]+0.004*[#   7]+0.004*[#  80]+0.004*[#  24]
          +0.004*[#  77]+0.003*[#  45]+0.002*[#  35]+0.002*[#  39]+0.002*[# 102]
          +0.002*[# 111]+0.002*[#  50]+0.002*[#   9]+0.001*[#  32]+0.001*[#   3]
          +0.001*[#  52]+0.001*[#  92]
    |psi|^2 = 0.999
==== e(  51) =    -7.17370 eV ==== 
     psi = 0.091*[#  99]+0.074*[#   5]+0.065*[# 106]+0.053*[#  25]+0.053*[#  96]
          +0.048*[# 104]+0.040*[#  44]+0.037*[# 115]+0.036*[#  54]+0.031*[#  24]
          +0.025*[#  61]+0.025*[#   7]+0.024*[#  63]+0.022*[# 113]+0.022*[# 107]
          +0.022*[#   8]+0.022*[#  52]+0.020*[#  97]+0.019*[#  33]+0.018*[#  43]
          +0.016*[#  16]+0.016*[#  34]+0.015*[#   6]+0.014*[#  59]+0.014*[#  77]
          +0.014*[#  79]+0.014*[#  32]+0.013*[#  35]+0.012*[#  36]+0.011*[#  41]
          +0.010*[#  62]+0.010*[#  53]+0.008*[#  98]+0.008*[#  17]+0.008*[#  27]
          +0.006*[#  14]+0.006*[# 114]+0.006*[#  18]+0.005*[#  95]+0.004*[#  81]
          +0.003*[#  51]+0.003*[#  78]+0.003*[# 117]+0.003*[#  26]+0.002*[#  50]
          +0.002*[#  80]+0.002*[# 103]+0.002*[# 108]+0.002*[#  15]+0.002*[#  40]
          +0.002*[#   9]+0.002*[# 110]+0.001*[#   2]+0.002*[#  94]+0.001*[#  92]
          +0.001*[# 116]
    |psi|^2 = 0.999
==== e(  52) =    -7.09592 eV ==== 
     psi = 0.078*[#  53]+0.069*[#  24]+0.065*[#  79]+0.060*[#  18]+0.058*[#  36]
          +0.047*[#  14]+0.046*[#  33]+0.041*[#  32]+0.037*[#  52]+0.037*[#  16]
          +0.035*[#  80]+0.035*[#  26]+0.034*[#  51]+0.033*[#  81]+0.031*[#  27]
          +0.023*[#  45]+0.023*[# 108]+0.021*[#  96]+0.019*[# 115]+0.019*[#   8]
          +0.016*[#   7]+0.015*[#   6]+0.014*[# 116]+0.014*[#  98]+0.013*[# 105]
          +0.012*[#  41]+0.011*[#  43]+0.011*[# 104]+0.010*[#  25]+0.009*[#  77]
          +0.008*[# 117]+0.008*[#  99]+0.007*[#  78]+0.006*[# 113]+0.004*[#  23]
          +0.004*[#  95]+0.003*[#  97]+0.003*[#  15]+0.002*[#  44]+0.002*[#  17]
          +0.002*[# 107]+0.002*[#  35]+0.002*[#  42]+0.002*[# 114]
    |psi|^2 = 1.000
==== e(  53) =    -7.05710 eV ==== 
     psi = 0.072*[# 115]+0.069*[#  79]+0.069*[#  96]+0.067*[#  24]+0.060*[# 106]
          +0.058*[#  53]+0.052*[#  16]+0.049*[#  42]+0.048*[#  43]+0.046*[#   8]
          +0.042*[#  33]+0.040*[# 105]+0.034*[#  34]+0.027*[#  15]+0.026*[#  14]
          +0.026*[#  32]+0.025*[#  41]+0.025*[#  36]+0.024*[#  18]+0.023*[# 104]
          +0.022*[# 108]+0.021*[#  45]+0.010*[#  95]+0.009*[#  23]+0.008*[#  25]
          +0.006*[# 113]+0.006*[#  77]+0.005*[#  78]+0.005*[#  97]+0.004*[#  44]
          +0.002*[# 114]+0.002*[# 107]+0.001*[#  20]+0.001*[#  74]+0.001*[#  99]
          +0.001*[#  48]+0.001*[#  80]+0.001*[#  49]
    |psi|^2 = 1.000
==== e(  54) =    -7.05706 eV ==== 
     psi = 0.072*[#  99]+0.070*[# 117]+0.068*[#  54]+0.052*[#   7]+0.051*[#  27]
          +0.051*[#   9]+0.050*[#  81]+0.048*[#   6]+0.044*[#  33]+0.040*[#  16]
          +0.036*[# 105]+0.035*[#  52]+0.034*[#  43]+0.033*[#  25]+0.029*[#  51]
          +0.029*[#  78]+0.023*[# 115]+0.022*[#  97]+0.019*[#  96]+0.017*[# 114]
          +0.017*[#  14]+0.014*[#  79]+0.013*[#  32]+0.012*[#  24]+0.012*[#  41]
          +0.011*[#  80]+0.010*[#  44]+0.010*[# 104]+0.009*[#  17]+0.008*[# 107]
          +0.008*[# 116]+0.008*[#  35]+0.006*[#   5]+0.006*[#  26]+0.006*[#  23]
          +0.005*[#  77]+0.004*[#  98]+0.002*[#  13]+0.002*[#  30]+0.001*[#  95]
          +0.001*[# 113]
    |psi|^2 = 1.000
==== e(  55) =    -7.05267 eV ==== 
     psi = 0.119*[#  95]+0.080*[#  23]+0.073*[#  44]+0.062*[#  52]+0.061*[# 113]
          +0.045*[#  15]+0.038*[#  34]+0.034*[#  81]+0.034*[#  42]+0.030*[#  41]
          +0.030*[#  77]+0.028*[#  17]+0.027*[#  33]+0.024*[#  79]+0.024*[#  99]
          +0.023*[#  26]+0.021*[#   8]+0.020*[#   7]+0.020*[#  98]+0.016*[#  18]
          +0.015*[#  54]+0.014*[#  45]+0.013*[#  14]+0.012*[# 117]+0.010*[#   6]
          +0.009*[#  32]+0.007*[#  53]+0.007*[# 114]+0.006*[#   9]+0.006*[# 107]
          +0.006*[#  50]+0.005*[#  59]+0.005*[# 105]+0.005*[#  36]+0.004*[# 116]
          +0.004*[#  85]+0.004*[#  96]+0.004*[#  25]+0.004*[#  16]+0.004*[#  31]
          +0.004*[#  83]+0.003*[#  47]+0.003*[# 108]+0.002*[#  97]+0.002*[#  80]
          +0.002*[#  78]+0.002*[#  35]+0.002*[#  62]+0.002*[#  75]+0.002*[#   5]
          +0.002*[#  63]+0.001*[# 103]+0.001*[#   2]+0.001*[#  27]+0.001*[#  68]
          +0.001*[# 104]+0.001*[#  58]+0.001*[#  74]+0.001*[#  30]+0.001*[#  43]
          +0.001*[#  60]
    |psi|^2 = 0.999
==== e(  56) =    -7.05238 eV ==== 
     psi = 0.073*[#  51]+0.070*[# 107]+0.066*[# 113]+0.053*[#  77]+0.052*[#   8]
          +0.048*[#  35]+0.046*[#   6]+0.039*[#  36]+0.038*[#  24]+0.037*[# 106]
          +0.037*[#  27]+0.034*[# 108]+0.028*[#   7]+0.027*[#  16]+0.026*[# 104]
          +0.025*[#  17]+0.023*[#  80]+0.021*[#  18]+0.019*[#  34]+0.017*[#  79]
          +0.016*[# 117]+0.014*[# 116]+0.014*[#  45]+0.012*[#  53]+0.011*[#  43]
          +0.010*[#  95]+0.010*[#  97]+0.010*[# 105]+0.009*[#  52]+0.008*[# 115]
          +0.008*[#  54]+0.007*[#  15]+0.007*[#  25]+0.006*[#  42]+0.006*[#  84]
          +0.005*[# 114]+0.005*[#  32]+0.004*[#   9]+0.004*[#  62]+0.004*[#  78]
          +0.004*[#  44]+0.004*[#  41]+0.003*[#  12]+0.003*[#  22]+0.003*[#  81]
          +0.002*[#  20]+0.002*[#   5]+0.002*[#  14]+0.002*[#  61]+0.002*[#  59]
          +0.001*[#  57]+0.001*[#  96]+0.001*[#  23]+0.001*[#  13]+0.001*[#  60]
          +0.001*[#  74]+0.001*[#  99]
    |psi|^2 = 0.999
==== e(  57) =    -7.01949 eV ==== 
     psi = 0.152*[#  61]+0.130*[#  60]+0.102*[#  63]+0.093*[#  70]+0.079*[#  69]
          +0.063*[#  72]+0.035*[#  98]+0.034*[#   5]+0.033*[# 116]+0.028*[# 104]
          +0.023*[#  41]+0.016*[# 114]+0.015*[#  45]+0.015*[#  97]+0.012*[# 108]
          +0.012*[#   9]+0.011*[#  42]+0.008*[# 106]+0.008*[# 113]+0.008*[#   7]
          +0.008*[# 107]+0.007*[#  27]+0.007*[#  34]+0.006*[#  44]+0.006*[#  81]
          +0.006*[#  95]+0.006*[#  15]+0.006*[#   6]+0.005*[#  17]+0.005*[#  50]
          +0.005*[#  35]+0.005*[#  59]+0.004*[#  43]+0.004*[# 105]+0.004*[#  96]
          +0.003*[#  51]+0.003*[#  68]+0.003*[#  52]+0.002*[#  79]+0.002*[#  78]
          +0.002*[#  24]+0.002*[# 115]+0.002*[#  25]+0.001*[#  23]+0.001*[#  83]
          
    |psi|^2 = 0.999
==== e(  58) =    -7.01568 eV ==== 
     psi = 0.097*[#  53]+0.085*[#  62]+0.066*[#  14]+0.058*[# 115]+0.052*[#  32]
          +0.043*[# 117]+0.043*[# 107]+0.042*[#  99]+0.041*[# 116]+0.037*[#  96]
          +0.037*[#  98]+0.035*[#  60]+0.029*[#  27]+0.028*[# 104]+0.028*[#  44]
          +0.024*[#  18]+0.023*[#  61]+0.017*[#  26]+0.017*[#  36]+0.015*[#   7]
          +0.014*[#  80]+0.014*[# 105]+0.012*[#  79]+0.010*[#  81]+0.010*[# 114]
          +0.010*[#  52]+0.010*[#  41]+0.009*[#  16]+0.009*[#  25]+0.007*[# 106]
          +0.006*[#   6]+0.006*[#  59]+0.005*[#  34]+0.005*[#  45]+0.005*[#  71]
          +0.005*[#  78]+0.004*[#   5]+0.004*[#  51]+0.003*[#  43]+0.003*[#  97]
          +0.003*[#  95]+0.003*[#  23]+0.002*[#  69]+0.002*[# 108]+0.001*[#  15]
          +0.001*[#  13]+0.001*[#  54]+0.001*[#  70]+0.001*[#  33]+0.001*[#  48]
          +0.001*[#  77]
    |psi|^2 = 1.000
==== e(  59) =    -7.01559 eV ==== 
     psi = 0.101*[#  59]+0.088*[#   5]+0.075*[#  24]+0.065*[#  33]+0.062*[#  79]
          +0.049*[#  16]+0.037*[#  81]+0.037*[#  41]+0.036*[#  43]+0.036*[#  63]
          +0.030*[#   9]+0.028*[#  96]+0.027*[#  44]+0.026*[#  54]+0.023*[# 106]
          +0.023*[# 105]+0.022*[#  42]+0.022*[#   6]+0.020*[# 104]+0.017*[#  27]
          +0.013*[# 113]+0.012*[#  99]+0.011*[# 108]+0.010*[#  80]+0.009*[#   7]
          +0.008*[#  95]+0.008*[#  61]+0.008*[#  32]+0.008*[#  45]+0.007*[#  51]
          +0.007*[# 107]+0.006*[#  68]+0.006*[# 115]+0.005*[#  36]+0.005*[#  53]
          +0.005*[#  97]+0.004*[#  50]+0.004*[#  78]+0.003*[# 116]+0.003*[#  52]
          +0.003*[#  17]+0.003*[#  62]+0.003*[#  26]+0.003*[#  35]+0.002*[#  72]
          +0.002*[#  23]+0.001*[#  15]+0.001*[#  74]+0.001*[#  77]+0.001*[# 114]
          
    |psi|^2 = 1.000
==== e(  60) =    -6.93639 eV ==== 
     psi = 0.107*[#   8]+0.072*[#  96]+0.070*[# 115]+0.061*[#  41]+0.053*[# 104]
          +0.053*[# 105]+0.046*[#  53]+0.045*[# 117]+0.045*[#  45]+0.042*[#  99]
          +0.041*[#  43]+0.041*[# 108]+0.025*[#  14]+0.025*[#  24]+0.025*[# 116]
          +0.025*[#  79]+0.024*[#  98]+0.022*[#  32]+0.021*[#   7]+0.020*[#  33]
          +0.019*[#  81]+0.018*[#   6]+0.018*[#  27]+0.015*[#  16]+0.010*[#  18]
          +0.009*[#  36]+0.009*[#  97]+0.007*[# 114]+0.005*[#  80]+0.005*[#  26]
          +0.003*[#  52]+0.003*[#  51]+0.002*[#  25]+0.002*[#  78]+0.002*[#  23]
          +0.001*[#  17]+0.001*[#  35]
    |psi|^2 = 1.000
==== e(  61) =    -6.92540 eV ==== 
     psi = 0.075*[#  62]+0.064*[#  45]+0.060*[# 104]+0.059*[# 108]+0.058*[#  61]
          +0.056*[#  41]+0.051*[#  60]+0.051*[#  71]+0.039*[#  70]+0.039*[#  98]
          +0.034*[#  69]+0.031*[# 116]+0.030*[#  97]+0.029*[# 114]+0.025*[#   8]
          +0.020*[#  34]+0.020*[#  53]+0.020*[#  81]+0.019*[#  15]+0.018*[#  27]
          +0.018*[#  42]+0.018*[# 107]+0.017*[# 106]+0.012*[# 117]+0.011*[#  44]
          +0.011*[#  32]+0.010*[#  18]+0.010*[#  36]+0.010*[#  14]+0.008*[#  26]
          +0.008*[#  99]+0.008*[#   6]+0.008*[#   7]+0.006*[#  80]+0.005*[#  95]
          +0.004*[#  96]+0.004*[# 113]+0.003*[#  25]+0.003*[#  78]+0.002*[#  51]
          +0.003*[#  52]+0.003*[# 115]+0.002*[#  17]+0.002*[#  77]+0.002*[#  23]
          +0.002*[#  48]+0.001*[#  49]+0.001*[#  75]+0.001*[#  22]
    |psi|^2 = 0.999
==== e(  62) =    -6.92534 eV ==== 
     psi = 0.107*[#   5]+0.091*[#  63]+0.061*[#  72]+0.055*[# 114]+0.053*[#  97]
          +0.048*[#  59]+0.036*[# 113]+0.033*[#  68]+0.032*[# 116]+0.032*[#  98]
          +0.031*[#  95]+0.029*[#   7]+0.029*[#  44]+0.029*[#  60]+0.028*[# 107]
          +0.022*[#   6]+0.020*[#  42]+0.019*[#  52]+0.019*[#  69]+0.019*[#  23]
          +0.019*[#  51]+0.018*[#  77]+0.017*[#  61]+0.017*[# 106]+0.013*[#  15]
          +0.012*[#  34]+0.011*[#  70]+0.007*[#  79]+0.007*[#  26]+0.007*[#  35]
          +0.007*[#  80]+0.006*[#  17]+0.005*[#  14]+0.005*[#  24]+0.004*[# 105]
          +0.004*[#   9]+0.004*[#  25]+0.004*[#  32]+0.004*[#  33]+0.004*[#  50]
          +0.003*[#  78]+0.003*[#  43]+0.002*[#  16]+0.002*[#  81]+0.002*[#  54]
          +0.002*[#  30]+0.002*[#  13]+0.001*[#  27]+0.001*[#  45]+0.001*[#  99]
          +0.001*[#  20]
    |psi|^2 = 0.999
==== e(  63) =    -6.89509 eV ==== 
     psi = 0.143*[#  71]+0.069*[# 117]+0.065*[#  99]+0.054*[#  69]+0.050*[#  15]
          +0.049*[# 106]+0.049*[#  26]+0.048*[#  42]+0.047*[#  34]+0.045*[#  80]
          +0.044*[#  70]+0.039*[#  98]+0.038*[#  81]+0.035*[#  27]+0.032*[# 116]
          +0.023*[#  95]+0.022*[# 113]+0.018*[# 115]+0.017*[#  51]+0.015*[#  52]
          +0.011*[#  23]+0.011*[#  77]+0.010*[#  96]+0.005*[#  32]+0.005*[#  97]
          +0.004*[#  45]+0.004*[#  79]+0.004*[#  36]+0.003*[# 104]+0.003*[# 108]
          +0.003*[#  14]+0.003*[# 114]+0.002*[#  18]+0.002*[#  84]+0.002*[#  85]
          +0.002*[#  44]+0.002*[#  41]+0.001*[#  24]+0.001*[#  35]+0.001*[#  62]
          
    |psi|^2 = 0.999
==== e(  64) =    -6.89491 eV ==== 
     psi = 0.174*[#  68]+0.074*[#   7]+0.072*[#   6]+0.071*[# 106]+0.071*[#  42]
          +0.058*[#  72]+0.037*[#  51]+0.036*[#  52]+0.036*[#  77]+0.035*[#  23]
          +0.031*[#  54]+0.028*[#  15]+0.028*[#  34]+0.021*[#  17]+0.018*[#  35]
          +0.016*[#  18]+0.016*[#  36]+0.016*[#  45]+0.014*[# 108]+0.013*[#  32]
          +0.012*[#  44]+0.012*[#   9]+0.010*[# 104]+0.009*[#  14]+0.008*[#  95]
          +0.008*[# 107]+0.008*[# 113]+0.006*[#  41]+0.006*[#  70]+0.005*[#  16]
          +0.005*[#  99]+0.005*[# 117]+0.005*[#  33]+0.003*[#  69]+0.002*[#   2]
          +0.002*[#  83]+0.002*[#  27]+0.002*[#  81]+0.002*[#  98]+0.002*[# 115]
          +0.001*[#  39]+0.001*[#  59]+0.001*[# 103]+0.001*[# 116]+0.001*[#  24]
          
    |psi|^2 = 0.999
==== e(  65) =    -6.85398 eV ==== 
     psi = 0.090*[#  43]+0.076*[# 105]+0.056*[#  71]+0.046*[#  16]+0.043*[# 107]
          +0.042*[#  70]+0.040*[#  69]+0.039*[# 108]+0.039*[#  33]+0.037*[#  44]
          +0.035*[#  45]+0.035*[# 114]+0.031*[#  97]+0.024*[# 104]+0.023*[#  42]
          +0.021*[#  95]+0.021*[#  96]+0.020*[# 113]+0.018*[# 106]+0.017*[# 115]
          +0.016*[#  32]+0.015*[#  41]+0.015*[#  62]+0.011*[#  36]+0.011*[#  61]
          +0.011*[#  14]+0.011*[#  78]+0.011*[#  60]+0.010*[# 117]+0.010*[#  25]
          +0.010*[#  99]+0.010*[#  18]+0.009*[#  24]+0.009*[#  23]+0.009*[#  77]
          +0.009*[#  35]+0.008*[#  79]+0.007*[#  17]+0.006*[#  15]+0.006*[#   6]
          +0.006*[#   7]+0.004*[#  80]+0.004*[# 116]+0.004*[#  34]+0.004*[#  26]
          +0.003*[#   8]+0.003*[#  98]+0.002*[#  51]+0.002*[#  52]+0.001*[#  81]
          
    |psi|^2 = 1.000
==== e(  66) =    -6.85386 eV ==== 
     psi = 0.186*[#   9]+0.089*[#  97]+0.089*[# 114]+0.084*[#  54]+0.068*[#  72]
          +0.044*[# 116]+0.039*[#  98]+0.036*[#  68]+0.033*[#   5]+0.026*[#  25]
          +0.025*[#  78]+0.023*[#  43]+0.023*[#  80]+0.022*[# 105]+0.020*[#  26]
          +0.020*[#  69]+0.018*[#  63]+0.014*[#  70]+0.012*[# 107]+0.012*[#  95]
          +0.011*[#  44]+0.010*[#  59]+0.008*[# 113]+0.008*[#  16]+0.007*[#  24]
          +0.007*[#  33]+0.006*[#  79]+0.005*[#  96]+0.005*[#  99]+0.005*[#  60]
          +0.005*[# 117]+0.004*[#  23]+0.004*[#  61]+0.004*[# 115]+0.004*[#  35]
          +0.003*[#  50]+0.003*[#  77]+0.003*[#  17]+0.002*[#   6]+0.001*[#  40]
          +0.001*[#  45]+0.001*[# 102]
    |psi|^2 = 1.000
==== e(  67) =    -6.78466 eV ==== 
     psi = 0.082*[# 113]+0.081*[#  95]+0.068*[#  77]+0.067*[#  23]+0.047*[#  44]
          +0.046*[#   6]+0.046*[# 107]+0.041*[#   7]+0.039*[#  17]+0.038*[#  35]
          +0.037*[#  51]+0.034*[# 108]+0.033*[#  52]+0.028*[#  45]+0.027*[#  36]
          +0.026*[#  42]+0.022*[#   8]+0.023*[# 106]+0.022*[#  18]+0.021*[#  15]
          +0.020*[#  98]+0.020*[#  53]+0.019*[# 116]+0.019*[#  34]+0.016*[#  26]
          +0.015*[#  80]+0.009*[#  41]+0.008*[# 117]+0.008*[#  14]+0.007*[#  81]
          +0.007*[#  99]+0.007*[# 104]+0.006*[#  27]+0.006*[#  32]+0.002*[#  97]
          +0.001*[#  25]
    |psi|^2 = 1.000
==== e(  68) =    -6.24851 eV ==== 
     psi = 0.053*[#  67]+0.050*[#  28]+0.045*[#  73]+0.036*[#  85]+0.031*[# 100]
          +0.028*[# 109]+0.028*[#   8]+0.026*[#  41]+0.026*[#  13]+0.026*[#  14]
          +0.025*[#  53]+0.024*[#  99]+0.022*[#  46]+0.022*[#  65]+0.021*[# 115]
          +0.021*[#  24]+0.020*[#  43]+0.019*[#  18]+0.018*[#  40]+0.017*[#  16]
          +0.017*[#  45]+0.016*[#  27]+0.016*[#  62]+0.015*[#  58]+0.015*[#  59]
          +0.015*[#  19]+0.015*[#  52]+0.014*[#  83]+0.014*[#  22]+0.014*[#   1]
          +0.013*[#  94]+0.013*[#  48]+0.013*[#   3]+0.012*[#  20]+0.011*[#  96]
          +0.011*[#  98]+0.011*[#   7]+0.011*[#  80]+0.010*[# 110]+0.009*[#  36]
          +0.009*[#  49]+0.009*[#  91]+0.009*[#  11]+0.009*[# 104]+0.008*[#  60]
          +0.008*[#  25]+0.006*[#  79]+0.006*[#  56]+0.006*[#  74]+0.005*[#  38]
          +0.005*[#  66]+0.005*[# 103]+0.005*[#  92]+0.004*[#  34]+0.004*[#  71]
          +0.004*[# 101]+0.004*[#  68]+0.004*[#  63]+0.004*[# 106]+0.004*[#  97]
          +0.003*[#  12]+0.003*[#  84]+0.003*[#   4]+0.003*[#  26]+0.002*[#  93]
          +0.002*[#   9]+0.002*[#  61]+0.002*[# 108]+0.002*[#   2]+0.002*[#  69]
          +0.002*[#  78]+0.002*[#  39]+0.002*[#   5]+0.002*[#  21]+0.002*[#  31]
          +0.002*[#  50]+0.001*[#  57]+0.001*[#  51]+0.001*[# 105]+0.001*[#  29]
          +0.001*[# 107]+0.001*[#  33]+0.001*[#  72]
    |psi|^2 = 0.997
==== e(  69) =    -6.24832 eV ==== 
     psi = 0.053*[#  66]+0.052*[#  10]+0.038*[#  19]+0.035*[#  84]+0.033*[#  37]
          +0.031*[#  46]+0.028*[# 105]+0.027*[#  30]+0.028*[#  96]+0.026*[#  65]
          +0.025*[# 117]+0.025*[#  32]+0.024*[#  91]+0.023*[#  79]+0.021*[#   8]
          +0.021*[#  33]+0.020*[# 102]+0.019*[#  81]+0.019*[#   1]+0.019*[# 104]
          +0.018*[#  53]+0.018*[#  59]+0.017*[#  83]+0.017*[# 115]+0.016*[#  75]
          +0.015*[#  57]+0.015*[#  74]+0.014*[#  26]+0.014*[#  36]+0.014*[# 111]
          +0.014*[# 108]+0.013*[#  92]+0.012*[# 116]+0.011*[#   4]+0.011*[#  51]
          +0.011*[#  62]+0.010*[#  24]+0.010*[#  49]+0.009*[#  20]+0.009*[#   6]
          +0.007*[#  56]+0.007*[#  73]+0.007*[#  63]+0.007*[#  61]+0.007*[# 110]
          +0.007*[#  48]+0.006*[#  18]+0.006*[#  29]+0.006*[#  78]+0.006*[#  80]
          +0.005*[#  43]+0.005*[#  15]+0.005*[#  68]+0.005*[# 109]+0.005*[#  41]
          +0.004*[#  39]+0.004*[#  50]+0.003*[#  38]+0.003*[#   9]+0.003*[#  28]
          +0.003*[#  71]+0.003*[# 101]+0.003*[# 114]+0.003*[#  31]+0.003*[#  42]
          +0.002*[#   2]+0.002*[#  60]+0.002*[#  22]+0.002*[# 112]+0.002*[#  44]
          +0.002*[#  70]+0.002*[#  72]+0.002*[# 100]+0.002*[#   3]+0.002*[#  27]
          +0.002*[#  40]+0.002*[#   5]+0.002*[#  14]+0.002*[#  76]+0.001*[#  77]
          +0.001*[#  67]+0.001*[# 103]
    |psi|^2 = 0.997
==== e(  70) =    -5.61007 eV ==== 
     psi = 0.099*[#  55]+0.065*[#  83]+0.051*[#  85]+0.044*[#  84]+0.034*[#  65]
          +0.033*[#  82]+0.033*[#   2]+0.028*[# 103]+0.027*[#  67]+0.026*[#  39]
          +0.023*[#  66]+0.022*[#  94]+0.020*[# 111]+0.019*[# 110]+0.018*[#  92]
          +0.017*[#   5]+0.014*[#  10]+0.014*[#  19]+0.014*[#  28]+0.014*[#  46]
          +0.014*[#  73]+0.014*[#  99]+0.013*[#  34]+0.013*[# 115]+0.013*[#  96]
          +0.012*[#  27]+0.012*[# 117]+0.011*[#  79]+0.011*[#  81]+0.011*[#  15]
          +0.011*[#   1]+0.011*[#  37]+0.011*[#  91]+0.011*[# 100]+0.011*[# 109]
          +0.010*[#  44]+0.010*[#  24]+0.009*[#  40]+0.009*[#  52]+0.009*[#  51]
          +0.009*[# 107]+0.009*[# 106]+0.008*[# 102]+0.007*[#  41]+0.007*[# 104]
          +0.007*[#  16]+0.007*[#  42]+0.007*[#  43]+0.006*[# 105]+0.006*[#  33]
          +0.006*[#   6]+0.005*[#   7]+0.005*[# 116]+0.004*[#   4]+0.004*[#   9]
          +0.004*[#  38]+0.004*[#  47]+0.004*[# 101]+0.003*[#  12]+0.004*[#  31]
          +0.003*[#  17]+0.003*[#  98]+0.003*[#  54]+0.003*[#   3]+0.003*[#  50]
          +0.002*[#  22]+0.002*[#  35]+0.002*[#  75]+0.002*[#  18]+0.002*[#  36]
          +0.002*[# 114]+0.002*[#  74]+0.002*[#  14]+0.001*[#  20]+0.001*[#  32]
          +0.001*[#  25]+0.001*[# 112]+0.001*[#  97]
    |psi|^2 = 0.997
==== e(  71) =    -4.62751 eV ==== 
     psi = 0.188*[#  84]+0.127*[#  85]+0.060*[#  91]+0.050*[# 109]+0.036*[#  20]
          +0.036*[#  74]+0.035*[#  57]+0.029*[#  22]+0.029*[#  37]+0.024*[#  58]
          +0.021*[# 102]+0.020*[#  13]+0.018*[#  71]+0.018*[#  75]+0.018*[#  40]
          +0.015*[#   3]+0.014*[# 100]+0.013*[#  30]+0.013*[#  19]+0.013*[#  12]
          +0.011*[#  73]+0.011*[#   4]+0.009*[# 110]+0.009*[#  21]+0.009*[#  76]
          +0.007*[#  36]+0.007*[#  18]+0.007*[#  69]+0.006*[#  10]+0.006*[#  70]
          +0.006*[#  51]+0.006*[#  11]+0.006*[#  66]+0.006*[#  31]+0.005*[#  52]
          +0.005*[#  14]+0.005*[#  92]+0.005*[#  26]+0.004*[#  77]+0.004*[#  25]
          +0.004*[#  78]+0.004*[#  24]+0.004*[#  48]+0.004*[#  67]+0.004*[#  93]
          +0.003*[#  32]+0.003*[#  43]+0.003*[#  28]+0.003*[#  79]+0.003*[#  62]
          +0.003*[# 105]+0.003*[# 112]+0.002*[#  27]+0.003*[#  34]+0.003*[#  80]
          +0.002*[#   8]+0.002*[#  81]+0.002*[#  15]+0.002*[#  29]+0.002*[#  53]
          +0.002*[#  83]+0.002*[# 115]+0.001*[#   1]+0.001*[#  96]+0.001*[#  97]
          
    |psi|^2 = 0.993
==== e(  72) =    -4.62737 eV ==== 
     psi = 0.186*[#  83]+0.088*[#  85]+0.060*[#   1]+0.048*[# 100]+0.045*[#  47]
          +0.042*[#  84]+0.035*[#  56]+0.033*[#  31]+0.032*[#  37]+0.023*[#  68]
          +0.022*[#  12]+0.019*[#  29]+0.018*[#  49]+0.017*[#  58]+0.015*[#  11]
          +0.013*[#  50]+0.013*[#  46]+0.013*[#  75]+0.012*[#  48]+0.012*[# 111]
          +0.012*[#  92]+0.011*[#  38]+0.012*[# 109]+0.011*[#  94]+0.011*[#  17]
          +0.010*[#  28]+0.010*[# 101]+0.010*[#  35]+0.009*[#  30]+0.009*[#  23]
          +0.008*[#  57]+0.007*[#  72]+0.007*[#  10]+0.007*[#  80]+0.007*[# 110]
          +0.006*[#  77]+0.006*[#   4]+0.006*[#  65]+0.005*[#  22]+0.005*[#  13]
          +0.005*[#  26]+0.004*[#  32]+0.004*[#   9]+0.004*[#  76]+0.004*[# 112]
          +0.003*[#  59]+0.003*[#  39]+0.003*[#  40]+0.003*[#  67]+0.003*[# 103]
          +0.002*[#  54]+0.003*[#  73]+0.002*[#  93]+0.002*[#   3]+0.002*[#  91]
          +0.002*[#  14]+0.002*[#  41]+0.002*[# 104]+0.002*[# 116]+0.002*[#  33]
          +0.001*[#   2]+0.001*[#  45]+0.002*[#  74]+0.001*[#  15]+0.001*[#  96]
          +0.001*[#  66]+0.001*[#  98]+0.001*[#  63]+0.001*[# 108]
    |psi|^2 = 0.993
==== e(  73) =    -3.90578 eV ==== 
     psi = 0.072*[#  10]+0.062*[#  37]+0.057*[#  28]+0.055*[#  20]+0.051*[#  48]
          +0.049*[# 100]+0.048*[#  92]+0.043*[#  74]+0.042*[#  49]+0.041*[# 110]
          +0.041*[#   3]+0.039*[#  73]+0.035*[#   4]+0.033*[# 103]+0.033*[# 109]
          +0.031*[#  31]+0.030*[#  39]+0.027*[#  12]+0.016*[#  22]+0.014*[#  19]
          +0.013*[#  76]+0.012*[#  91]+0.012*[#  30]+0.011*[#  21]+0.011*[#  94]
          +0.011*[#  71]+0.010*[# 112]+0.010*[#  69]+0.009*[#  93]+0.007*[# 102]
          +0.007*[#  70]+0.004*[#   8]+0.004*[#  53]+0.004*[#  75]+0.002*[#  46]
          +0.002*[# 106]+0.002*[#   1]+0.002*[#  11]+0.002*[#  42]+0.002*[# 115]
          +0.002*[#  18]+0.002*[#  45]+0.002*[#  24]+0.002*[#  36]+0.002*[#  62]
          +0.002*[#  79]+0.002*[#  95]+0.002*[#  96]+0.002*[#  60]+0.001*[#  34]
          +0.001*[# 111]+0.001*[#  15]+0.001*[# 108]+0.001*[# 113]
    |psi|^2 = 0.989
==== e(  74) =    -3.90549 eV ==== 
     psi = 0.071*[#  46]+0.064*[#  13]+0.061*[#   1]+0.060*[#  19]+0.057*[#  30]
          +0.053*[#  40]+0.051*[#  91]+0.050*[#  75]+0.050*[# 102]+0.047*[# 111]
          +0.035*[#  94]+0.035*[#  73]+0.034*[#  22]+0.030*[# 109]+0.028*[#   2]
          +0.024*[#  11]+0.024*[#  47]+0.022*[#  29]+0.019*[#  38]+0.017*[# 101]
          +0.016*[#  28]+0.014*[# 100]+0.013*[#  72]+0.012*[#  74]+0.007*[#  68]
          +0.007*[# 110]+0.006*[#  49]+0.005*[#  12]+0.005*[#  70]+0.004*[#  21]
          +0.004*[#   4]+0.004*[#  39]+0.003*[#  93]+0.002*[#  25]+0.002*[# 117]
          +0.002*[#  14]+0.002*[#  41]+0.002*[#  69]+0.002*[#  32]+0.002*[#  63]
          +0.002*[#  97]+0.002*[#  81]+0.002*[# 104]+0.002*[#   6]+0.002*[#   7]
          +0.002*[#  20]+0.002*[#  33]+0.002*[#  78]+0.002*[#  99]+0.002*[# 105]
          +0.001*[# 114]+0.001*[#  10]+0.001*[#  50]+0.001*[#  52]+0.001*[#  16]
          +0.001*[#  27]+0.001*[#  37]+0.001*[#  59]+0.001*[#  43]+0.001*[#  51]
          
    |psi|^2 = 0.989
==== e(  75) =    -3.82311 eV ==== 
     psi = 0.108*[#  83]+0.085*[#  85]+0.073*[#  84]+0.038*[#   2]+0.035*[#  10]
          +0.035*[#  19]+0.035*[#  46]+0.034*[#  28]+0.035*[#  73]+0.034*[#  39]
          +0.034*[# 103]+0.032*[#  55]+0.022*[#  94]+0.021*[# 111]+0.021*[#  37]
          +0.021*[#   1]+0.021*[#  91]+0.021*[# 100]+0.021*[# 109]+0.015*[#  21]
          +0.015*[#  12]+0.014*[# 110]+0.014*[#  76]+0.014*[#  47]+0.014*[#  31]
          +0.012*[#  92]+0.011*[#  70]+0.010*[#  69]+0.009*[#  29]+0.008*[#  64]
          +0.008*[#  11]+0.008*[#  72]+0.007*[#  75]+0.007*[#  22]+0.006*[#  34]
          +0.006*[#  15]+0.005*[#  27]+0.005*[#  81]+0.005*[#  48]+0.004*[#  49]
          +0.004*[#  17]+0.004*[#  40]+0.004*[#  35]+0.003*[#  56]+0.003*[# 102]
          +0.003*[#  93]+0.003*[#  50]+0.003*[#  51]+0.003*[#  58]+0.002*[#  54]
          +0.002*[#  57]+0.002*[# 112]+0.002*[#  52]+0.002*[#  78]+0.002*[#   9]
          +0.002*[#  23]+0.002*[#  25]+0.002*[#  74]+0.001*[#  42]+0.001*[#  77]
          +0.001*[# 106]+0.001*[#  20]+0.001*[#  26]
    |psi|^2 = 0.991
==== e(  76) =    -2.80967 eV ==== 
     psi = 0.175*[#  55]+0.065*[#  56]+0.051*[#  58]+0.044*[#  57]+0.035*[#  64]
          +0.034*[#  10]+0.034*[#  19]+0.034*[#  28]+0.034*[#  46]+0.034*[#  73]
          +0.032*[#  83]+0.028*[#  76]+0.027*[#  21]+0.026*[#  29]+0.026*[#  85]
          +0.025*[#  11]+0.022*[#  84]+0.017*[#  49]+0.017*[# 101]+0.016*[# 112]
          +0.016*[#  48]+0.016*[#  38]+0.015*[#  93]+0.011*[#   4]+0.010*[#   3]
          +0.009*[#  13]+0.007*[#  30]+0.007*[#  40]+0.006*[#  20]+0.006*[#  92]
          +0.006*[# 102]+0.005*[# 110]+0.005*[#  74]+0.003*[#   1]+0.003*[#  37]
          +0.003*[#  82]+0.003*[#  91]+0.003*[# 100]+0.003*[# 109]+0.003*[#  98]
          +0.003*[#  42]+0.003*[# 116]+0.002*[#  94]+0.002*[# 106]+0.002*[#  54]
          +0.002*[#  70]+0.002*[#  80]+0.002*[#   2]+0.002*[#   7]+0.002*[#  26]
          +0.002*[#  32]+0.002*[#  61]+0.002*[#   5]+0.002*[#  69]+0.002*[# 104]
          +0.002*[# 111]+0.002*[#   6]+0.002*[#  14]+0.002*[#  16]+0.002*[#  45]
          +0.002*[#  60]+0.001*[#  33]+0.001*[#  41]+0.001*[#  22]+0.001*[#  97]
          +0.001*[# 108]+0.001*[#  24]+0.001*[#  50]+0.001*[#  63]+0.001*[#  72]
          +0.001*[# 114]+0.001*[# 103]
    |psi|^2 = 0.984
==== e(  77) =    -2.53036 eV ==== 
     psi = 0.137*[#  84]+0.084*[#  85]+0.082*[#  57]+0.051*[#  92]+0.050*[#  58]
          +0.048*[# 110]+0.045*[#  19]+0.043*[#  94]+0.036*[#  73]+0.027*[#  40]
          +0.025*[# 111]+0.024*[#  12]+0.024*[#  75]+0.024*[#  10]+0.022*[#  22]
          +0.020*[#  39]+0.019*[#  91]+0.016*[#  93]+0.015*[# 109]+0.015*[# 112]
          +0.014*[# 102]+0.012*[#  31]+0.012*[#  21]+0.012*[#  38]+0.010*[#  37]
          +0.009*[#  28]+0.007*[#  48]+0.007*[#  76]+0.007*[# 103]+0.007*[#  25]
          +0.005*[#  78]+0.005*[#  20]+0.005*[#  30]+0.005*[#  49]+0.004*[#   3]
          +0.004*[# 100]+0.003*[#   7]+0.003*[# 101]+0.003*[#   6]+0.003*[#  18]
          +0.002*[#  74]+0.002*[#  83]+0.002*[#   2]+0.002*[# 108]+0.002*[#  36]
          +0.002*[#  13]+0.002*[# 106]+0.002*[#  42]+0.002*[# 107]+0.002*[#  71]
          +0.001*[#  46]+0.001*[#  56]+0.001*[#  45]+0.001*[#   8]+0.001*[# 113]
          
    |psi|^2 = 0.984
==== e(  78) =    -2.53015 eV ==== 
     psi = 0.130*[#  83]+0.078*[#  56]+0.068*[#  85]+0.061*[#   2]+0.045*[# 103]
          +0.045*[#  46]+0.041*[#  58]+0.037*[#  28]+0.035*[#  47]+0.029*[# 101]
          +0.028*[#   4]+0.026*[#  39]+0.025*[#  84]+0.022*[#  10]+0.022*[#  31]
          +0.021*[#  38]+0.019*[#   1]+0.019*[#   3]+0.017*[# 102]+0.017*[# 111]
          +0.016*[# 100]+0.015*[#  57]+0.013*[#  74]+0.011*[#  12]+0.010*[#  73]
          +0.010*[#  37]+0.009*[#  20]+0.009*[#  40]+0.007*[#  13]+0.007*[#  29]
          +0.007*[#  11]+0.006*[# 112]+0.005*[#  50]+0.005*[#  95]+0.005*[#  76]
          +0.005*[#  30]+0.005*[#  94]+0.005*[# 110]+0.004*[# 109]+0.004*[# 113]
          +0.004*[#  35]+0.003*[#  17]+0.003*[#  44]+0.003*[#  49]+0.002*[#  22]
          +0.002*[#  68]+0.002*[#  21]+0.002*[#  36]+0.002*[#  98]+0.002*[# 107]
          +0.001*[#  78]+0.001*[# 116]+0.001*[#  23]+0.001*[#  48]+0.001*[#  54]
          
    |psi|^2 = 0.984
==== e(  79) =    -2.28598 eV ==== 
     psi = 0.060*[#  93]+0.059*[# 112]+0.048*[#  83]+0.047*[# 101]+0.043*[#  38]
          +0.038*[#  85]+0.037*[#   1]+0.037*[#  37]+0.037*[#  91]+0.037*[# 100]
          +0.037*[# 109]+0.036*[#  82]+0.034*[#  55]+0.032*[#  84]+0.027*[#   3]
          +0.026*[#   4]+0.017*[#  11]+0.018*[#  29]+0.016*[#  20]+0.015*[#  74]
          +0.014*[#  39]+0.014*[#  47]+0.014*[#  76]+0.014*[#  49]+0.013*[#  13]
          +0.013*[#  64]+0.012*[#  21]+0.012*[# 103]+0.012*[#  22]+0.012*[#  48]
          +0.011*[#  31]+0.011*[#  10]+0.011*[#  19]+0.011*[#  28]+0.011*[#  30]
          +0.011*[#  46]+0.011*[#  73]+0.010*[#   2]+0.010*[#  75]+0.009*[#  12]
          +0.006*[#  40]+0.005*[# 102]+0.004*[# 111]+0.003*[#  94]+0.003*[#  50]
          +0.002*[#  61]+0.002*[#  60]+0.002*[# 114]+0.001*[#   5]+0.001*[#  63]
          +0.001*[#  78]+0.002*[#  97]+0.001*[#  17]+0.001*[#  25]+0.001*[#  35]
          +0.001*[#  44]+0.001*[# 107]+0.001*[#   9]+0.001*[#  65]
    |psi|^2 = 0.990
==== e(  80) =    -1.83384 eV ==== 
     psi = 0.104*[#  37]+0.098*[#  10]+0.088*[# 100]+0.083*[#  28]+0.060*[#  11]
[...]
          +0.002*[#  80]+0.002*[#  26]+0.002*[#  32]+0.002*[#  61]+0.002*[#  94]
          +0.002*[#   6]+0.002*[#  14]+0.002*[#  16]+0.002*[#  45]+0.002*[#  60]
          +0.002*[#  70]+0.002*[# 104]+0.001*[#   2]+0.001*[#   5]+0.001*[#  22]
          +0.001*[#  33]+0.001*[#  41]+0.001*[#  69]+0.001*[# 108]+0.001*[# 111]
          +0.001*[#  63]+0.001*[#  97]+0.001*[#  24]+0.001*[#  50]+0.001*[#  72]
          +0.001*[# 113]+0.001*[# 114]
    |psi|^2 = 0.986
==== e(  77) =    -2.34254 eV ==== 
     psi = 0.141*[#  84]+0.088*[#  57]+0.082*[#  85]+0.052*[#  92]+0.051*[#  58]
          +0.048*[# 110]+0.045*[#  19]+0.043*[#  94]+0.035*[#  73]+0.030*[#  40]
          +0.024*[#  10]+0.024*[# 111]+0.021*[#  75]+0.021*[#  93]+0.021*[#  12]
          +0.020*[#  39]+0.019*[#  22]+0.019*[# 112]+0.018*[#  91]+0.015*[#  38]
          +0.014*[# 102]+0.014*[# 109]+0.010*[#  31]+0.010*[#  37]+0.008*[#  28]
          +0.007*[#  48]+0.006*[#  25]+0.006*[#  21]+0.006*[# 103]+0.006*[#  20]
          +0.005*[#   3]+0.005*[#  49]+0.005*[#  78]+0.005*[#  30]+0.004*[# 101]
          +0.003*[# 100]+0.003*[#  83]+0.003*[#  76]+0.002*[#   2]+0.002*[#   6]
          +0.003*[#   7]+0.002*[#  18]+0.002*[#  74]+0.002*[#  56]+0.002*[# 108]
          +0.002*[#  71]+0.002*[#  46]+0.002*[# 106]+0.001*[# 107]+0.001*[#   8]
          +0.001*[#  36]+0.001*[#  42]+0.001*[#  66]+0.001*[#  13]+0.001*[#  45]
          +0.001*[# 113]
    |psi|^2 = 0.984
==== e(  78) =    -2.34233 eV ==== 
     psi = 0.131*[#  83]+0.082*[#  56]+0.072*[#  85]+0.058*[#   2]+0.045*[#  58]
          +0.044*[#  46]+0.043*[# 103]+0.037*[#  28]+0.034*[# 101]+0.033*[#   4]
          +0.029*[#  47]+0.024*[#  39]+0.023*[#  38]+0.023*[#  84]+0.023*[#   3]
          +0.021*[#  10]+0.020*[# 102]+0.019*[#  31]+0.018*[#   1]+0.017*[# 111]
          +0.015*[# 100]+0.014*[#  57]+0.013*[#  74]+0.011*[#  73]+0.009*[#  40]
          +0.009*[#  13]+0.009*[#  37]+0.008*[#  20]+0.008*[#  12]+0.008*[# 112]
          +0.006*[#  50]+0.005*[#  30]+0.005*[# 110]+0.005*[#  95]+0.004*[# 109]
          +0.004*[#  11]+0.004*[#  94]+0.004*[#  35]+0.004*[# 113]+0.004*[#  29]
          +0.003*[#  76]+0.003*[#  17]+0.003*[#  22]+0.003*[#  44]+0.002*[#  68]
          +0.002*[#  36]+0.002*[#  78]+0.002*[# 107]+0.001*[#  98]+0.001*[# 116]
          +0.001*[#  21]+0.001*[#  23]+0.001*[#  49]+0.001*[#  65]
    |psi|^2 = 0.984
==== e(  79) =    -2.05959 eV ==== 
     psi = 0.058*[#  93]+0.058*[# 112]+0.051*[#  83]+0.046*[# 101]+0.043*[#  38]
          +0.040*[#  85]+0.037*[#  55]+0.036*[#   1]+0.036*[#  37]+0.036*[#  91]
          +0.036*[# 100]+0.036*[# 109]+0.035*[#  82]+0.034*[#  84]+0.026*[#   3]
          +0.026*[#   4]+0.019*[#  29]+0.019*[#  11]+0.016*[#  20]+0.016*[#  74]
          +0.016*[#  76]+0.014*[#  47]+0.014*[#  49]+0.014*[#  21]+0.013*[#  13]
          +0.013*[#  39]+0.013*[#  48]+0.012*[#  22]+0.012*[#  64]+0.011*[#  30]
          +0.011*[#  31]+0.010*[#  10]+0.010*[#  19]+0.010*[#  28]+0.010*[#  46]
          +0.010*[#  73]+0.010*[# 103]+0.010*[#  75]+0.009*[#  12]+0.009*[#   2]
          +0.006*[#  40]+0.005*[# 102]+0.003*[# 111]+0.003*[#  50]+0.002*[#  94]
          +0.002*[#  61]+0.002*[#  60]+0.002*[# 114]+0.001*[#   5]+0.001*[# 107]
          +0.001*[#  17]+0.001*[#  35]+0.001*[#  44]+0.001*[#  63]+0.001*[#  97]
          +0.001*[#  65]+0.001*[#  78]+0.001*[#  25]
    |psi|^2 = 0.990
==== e(  80) =    -1.60048 eV ==== 
     psi = 0.099*[#  37]+0.095*[#  10]+0.085*[# 100]+0.081*[#  28]+0.060*[#  38]
          +0.056*[#  11]+0.052*[# 101]+0.048*[#  29]+0.048*[# 109]+0.045*[#  73]
          +0.045*[# 112]+0.040*[#  76]+0.025*[#  93]+0.025*[#  91]+0.024*[#  19]
          +0.023*[#  21]+0.017*[#  13]+0.017*[#  30]+0.015*[#  40]+0.015*[# 102]
          +0.013*[#  39]+0.009*[# 103]+0.007*[#   3]+0.007*[#  48]+0.006*[#  12]
          +0.004*[#  31]+0.002*[#  23]+0.002*[#  22]+0.002*[#  77]+0.002*[#  95]
          +0.001*[#   1]+0.001*[#  62]+0.001*[#  46]+0.001*[# 113]+0.001*[#  52]
          +0.001*[#   4]+0.001*[#  49]+0.001*[#  51]+0.001*[#  60]
    |psi|^2 = 0.991
==== e(  81) =    -1.60028 eV ==== 
     psi = 0.102*[#   1]+0.097*[#  46]+0.079*[#  91]+0.075*[#  19]+0.061*[#  93]
          +0.056*[# 109]+0.054*[#  21]+0.053*[#  73]+0.044*[#   4]+0.043*[#  49]
          +0.042*[# 112]+0.038*[#   3]+0.037*[#  76]+0.036*[#  48]+0.021*[# 101]
          +0.020*[#  29]+0.018*[# 100]+0.017*[#  28]+0.009*[#  20]+0.008*[#  38]
          +0.008*[#  11]+0.008*[#  74]+0.007*[#   2]+0.006*[#  92]+0.005*[# 110]
          +0.005*[# 111]+0.004*[#  37]+0.004*[#  10]+0.003*[#  94]+0.002*[#  75]
          +0.002*[#  40]+0.002*[#  13]+0.002*[#  47]+0.002*[#  63]+0.001*[#  17]
          +0.001*[#  35]+0.001*[#  80]
    |psi|^2 = 0.991
==== e(  82) =    -1.24838 eV ==== 
     psi = 0.153*[#  76]+0.139*[# 112]+0.084*[#  29]+0.074*[# 101]+0.070*[#  21]
          +0.064*[#  93]+0.040*[# 103]+0.033*[#  31]+0.031*[#  49]+0.030*[#  67]
          +0.027*[#   4]+0.017*[#  30]+0.016*[#  94]+0.015*[# 111]+0.013*[#  22]
          +0.013*[# 102]+0.010*[#  75]+0.009*[#   2]+0.009*[#  13]+0.008*[#  66]
          +0.008*[# 109]+0.008*[#  40]+0.007*[#  47]+0.007*[#  73]+0.006*[#  65]
          +0.006*[# 100]+0.005*[#  28]+0.005*[#  20]+0.004*[#  39]+0.004*[#  91]
          +0.004*[#  12]+0.004*[#  58]+0.003*[#  19]+0.003*[#  48]+0.003*[#   3]
          +0.003*[#  92]+0.002*[#  53]+0.002*[# 104]+0.002*[#   8]+0.002*[#  14]
          +0.002*[#  32]+0.002*[#  41]+0.002*[#   1]+0.002*[#  98]+0.001*[#  26]
          +0.001*[#  46]+0.001*[#  62]+0.001*[# 116]
    |psi|^2 = 0.969
==== e(  83) =    -1.24822 eV ==== 
     psi = 0.112*[#  11]+0.098*[#  38]+0.086*[#  21]+0.079*[#  93]+0.069*[#  48]
          +0.060*[#   3]+0.049*[#  39]+0.041*[#  49]+0.040*[#  12]+0.037*[#  29]
          +0.034*[#   4]+0.033*[# 101]+0.032*[#   2]+0.025*[#  47]+0.024*[#  66]
          +0.020*[#  65]+0.011*[#  13]+0.008*[#  37]+0.007*[#  40]+0.007*[#  10]
          +0.006*[#   1]+0.006*[#  75]+0.006*[# 111]+0.005*[#  46]+0.005*[# 103]
          +0.005*[#  74]+0.004*[#  91]+0.004*[# 110]+0.004*[#  31]+0.003*[#  19]
          +0.003*[#  57]+0.002*[#  56]+0.002*[#  94]+0.002*[#  33]+0.002*[#  76]
          +0.002*[#  24]+0.002*[#  59]+0.002*[#  92]+0.002*[#  96]+0.002*[# 105]
          +0.002*[# 100]+0.002*[# 112]+0.001*[#  28]+0.001*[#  79]+0.001*[# 115]
          +0.001*[#   9]
    |psi|^2 = 0.969
==== e(  84) =    -1.18287 eV ==== 
     psi = 0.085*[#  75]+0.082*[#  22]+0.081*[# 111]+0.079*[#  94]+0.079*[#   3]
          +0.075*[#   4]+0.071*[#  48]+0.067*[#  49]+0.035*[#  92]+0.030*[#  30]
          +0.028*[# 102]+0.027*[#  20]+0.026*[#  12]+0.024*[# 110]+0.022*[#  13]
          +0.022*[#  31]+0.020*[#  40]+0.017*[#  74]+0.016*[#  39]+0.013*[# 103]
          +0.005*[# 101]+0.005*[#  37]+0.005*[#  10]+0.005*[# 100]+0.005*[#  29]
          +0.004*[#  28]+0.003*[#  38]+0.003*[#  11]+0.002*[#  93]+0.002*[# 109]
          +0.002*[#  73]+0.002*[#  43]+0.002*[#  91]+0.001*[#  16]+0.001*[#  19]
          +0.001*[#  21]+0.001*[# 105]+0.001*[#  33]+0.001*[# 112]+0.001*[# 114]
          +0.001*[#  45]+0.001*[#  78]+0.001*[#  25]+0.001*[#  62]+0.001*[#  97]
          +0.001*[# 108]
    |psi|^2 = 0.966
==== e(  85) =    -1.18283 eV ==== 
     psi = 0.088*[#  40]+0.086*[# 102]+0.077*[#  13]+0.075*[#  30]+0.073*[#  74]
          +0.068*[# 110]+0.064*[#  20]+0.059*[#  92]+0.044*[#  47]+0.032*[#  38]
          +0.031*[#  31]+0.030*[#   2]+0.029*[#  11]+0.029*[# 103]+0.027*[#  12]
          +0.026*[#  39]+0.023*[# 101]+0.021*[#  29]+0.009*[#  21]+0.008*[#  93]
          +0.007*[#  76]+0.007*[# 112]+0.005*[#   1]+0.005*[#  46]+0.004*[#  91]
          +0.004*[# 111]+0.003*[#  19]+0.003*[# 109]+0.003*[#  73]+0.002*[#  97]
          +0.002*[#   9]+0.002*[#  25]+0.002*[#  54]+0.002*[# 114]+0.002*[#  78]
          +0.001*[#   5]+0.001*[#  63]+0.001*[#  50]
    |psi|^2 = 0.966
==== e(  86) =    -0.42127 eV ==== 
     psi = 0.188*[#  56]+0.148*[#  58]+0.127*[#  57]+0.037*[#  83]+0.034*[#  76]
          +0.033*[#  29]+0.033*[#  21]+0.032*[#  11]+0.029*[#  85]+0.025*[#  84]
          +0.022*[#  49]+0.021*[#  48]+0.020*[#  55]+0.014*[#  64]+0.012*[#  13]
          +0.010*[#  65]+0.010*[#  30]+0.009*[#  20]+0.008*[#  67]+0.008*[#  74]
          +0.007*[#  66]+0.003*[#   1]+0.003*[#  37]+0.003*[#  70]+0.003*[#  91]
          +0.003*[# 100]+0.003*[# 109]+0.002*[#  22]+0.002*[#  69]+0.002*[#   2]
          +0.002*[#  72]+0.002*[#  39]+0.002*[# 103]+0.002*[#  75]+0.001*[#  47]
          +0.001*[#  94]+0.001*[# 111]+0.001*[#  92]+0.001*[#  99]+0.001*[# 110]
          +0.001*[# 106]
    |psi|^2 = 0.880
==== e(  87) =    -0.26169 eV ==== 
     psi = 0.020*[#  64]+0.002*[#  55]+0.002*[#  56]+0.002*[# 112]+0.002*[#  38]
          +0.002*[#  93]+0.002*[# 101]+0.001*[#  58]+0.001*[#  11]+0.001*[#  29]
          +0.001*[#   3]+0.001*[#   4]+0.001*[#  20]+0.001*[#  47]+0.001*[#  57]
          +0.001*[#  74]
    |psi|^2 = 0.057
==== e(  88) =    -0.11314 eV ==== 
     psi = 0.082*[#   2]+0.073*[# 103]+0.066*[#  29]+0.054*[#  56]+0.042*[#  49]
          +0.040*[#  39]+0.038*[#  48]+0.035*[#  11]+0.031*[#  58]+0.027*[# 101]
          +0.027*[#  76]+0.024*[#  83]+0.017*[# 112]+0.015*[#  30]+0.015*[# 111]
          +0.014*[#  85]+0.012*[#   3]+0.012*[#  46]+0.012*[#  38]+0.010*[#  28]
          +0.009*[#   4]+0.008*[#  13]+0.007*[#  57]+0.006*[#   1]+0.006*[# 100]
          +0.005*[#  10]+0.004*[# 110]+0.003*[#  84]+0.003*[#  73]+0.003*[#  37]
          +0.003*[#  68]+0.002*[#  74]+0.001*[#  21]+0.001*[# 109]
    |psi|^2 = 0.721
==== e(  89) =    -0.10998 eV ==== 
     psi = 0.087*[#  21]+0.067*[#  93]+0.065*[#  76]+0.062*[#  57]+0.049*[#  39]
          +0.048*[#  94]+0.045*[# 112]+0.034*[#  11]+0.034*[# 111]+0.034*[#  58]
          +0.028*[#  84]+0.015*[#  85]+0.014*[#  13]+0.014*[#  20]+0.014*[#  38]
          +0.013*[# 110]+0.012*[#  19]+0.012*[#  92]+0.012*[# 103]+0.010*[#  74]
          +0.009*[#  73]+0.008*[#  10]+0.007*[#  29]+0.006*[#  91]+0.005*[# 109]
          +0.005*[#   2]+0.005*[#  37]+0.004*[#  30]+0.003*[#  48]+0.003*[# 101]
          +0.002*[#  28]+0.002*[#  56]+0.002*[#  71]+0.001*[#  49]+0.001*[# 100]
          +0.001*[#   4]+0.001*[#  22]
    |psi|^2 = 0.751

Lowdin Charges: 

     Atom #   1: total charge =  10.9580, s =  0.5255, p =  0.5753, d =  9.8573, 
                 spin up      =   5.5996, s =  0.3065, 
                 spin up      =   5.5996, p =  0.3617, pz=  0.1376, px=  0.1129, py=  0.1113, 
                 spin up      =   5.5996, d =  4.9314, dz2=  0.9865, dxz=  0.9849, dyz=  0.9850, dx2-y2=  0.9891, dxy=  0.9858, 
                 spin down    =   5.3584, s =  0.2189, 
                 spin down    =   5.3584, p =  0.2135, pz=  0.0715, px=  0.0707, py=  0.0713, 
                 spin down    =   5.3584, d =  4.9259, dz2=  0.9863, dxz=  0.9842, dyz=  0.9842, dx2-y2=  0.9864, dxy=  0.9848, 
                 polarization =   0.2412, s =  0.0876, p =  0.1482, d =  0.0055, 
     Atom #   2: total charge =  11.0179, s =  0.5052, p =  0.6587, d =  9.8540, 
                 spin up      =   5.6480, s =  0.3095, 
                 spin up      =   5.6480, p =  0.4058, pz=  0.1077, px=  0.1402, py=  0.1579, 
                 spin up      =   5.6480, d =  4.9327, dz2=  0.9867, dxz=  0.9894, dyz=  0.9866, dx2-y2=  0.9856, dxy=  0.9844, 
                 spin down    =   5.3699, s =  0.1958, 
                 spin down    =   5.3699, p =  0.2529, pz=  0.0731, px=  0.0904, py=  0.0894, 
                 spin down    =   5.3699, d =  4.9213, dz2=  0.9854, dxz=  0.9834, dyz=  0.9860, dx2-y2=  0.9825, dxy=  0.9840, 
                 polarization =   0.2780, s =  0.1137, p =  0.1530, d =  0.0114, 
     Atom #   3: total charge =  11.0178, s =  0.5052, p =  0.6587, d =  9.8540, 
                 spin up      =   5.6480, s =  0.3095, 
                 spin up      =   5.6480, p =  0.4058, pz=  0.1606, px=  0.0883, py=  0.1569, 
                 spin up      =   5.6480, d =  4.9327, dz2=  0.9869, dxz=  0.9894, dyz=  0.9807, dx2-y2=  0.9849, dxy=  0.9908, 
                 spin down    =   5.3699, s =  0.1957, 
                 spin down    =   5.3699, p =  0.2528, pz=  0.0988, px=  0.0584, py=  0.0957, 
                 spin down    =   5.3699, d =  4.9213, dz2=  0.9856, dxz=  0.9879, dyz=  0.9787, dx2-y2=  0.9844, dxy=  0.9847, 
                 polarization =   0.2781, s =  0.1138, p =  0.1530, d =  0.0114, 
     Atom #   4: total charge =  11.0178, s =  0.5052, p =  0.6587, d =  9.8540, 
                 spin up      =   5.6479, s =  0.3094, 
                 spin up      =   5.6479, p =  0.4058, pz=  0.1030, px=  0.1604, py=  0.1425, 
                 spin up      =   5.6479, d =  4.9327, dz2=  0.9862, dxz=  0.9871, dyz=  0.9899, dx2-y2=  0.9849, dxy=  0.9845, 
                 spin down    =   5.3699, s =  0.1958, 
                 spin down    =   5.3699, p =  0.2529, pz=  0.0712, px=  0.0874, py=  0.0942, 
                 spin down    =   5.3699, d =  4.9213, dz2=  0.9852, dxz=  0.9863, dyz=  0.9835, dx2-y2=  0.9820, dxy=  0.9843, 
                 polarization =   0.2780, s =  0.1137, p =  0.1530, d =  0.0114, 
     Atom #   5: total charge =  10.9579, s =  0.5255, p =  0.5752, d =  9.8573, 
                 spin up      =   5.5995, s =  0.3065, 
                 spin up      =   5.5995, p =  0.3617, pz=  0.0855, px=  0.1368, py=  0.1393, 
                 spin up      =   5.5995, d =  4.9314, dz2=  0.9877, dxz=  0.9846, dyz=  0.9881, dx2-y2=  0.9854, dxy=  0.9855, 
                 spin down    =   5.3584, s =  0.2190, 
                 spin down    =   5.3584, p =  0.2135, pz=  0.0647, px=  0.0689, py=  0.0799, 
                 spin down    =   5.3584, d =  4.9259, dz2=  0.9864, dxz=  0.9824, dyz=  0.9869, dx2-y2=  0.9850, dxy=  0.9852, 
                 polarization =   0.2412, s =  0.0875, p =  0.1482, d =  0.0055, 
     Atom #   6: total charge =  11.0179, s =  0.5052, p =  0.6587, d =  9.8539, 
                 spin up      =   5.6480, s =  0.3094, 
                 spin up      =   5.6480, p =  0.4059, pz=  0.1415, px=  0.1325, py=  0.1318, 
                 spin up      =   5.6480, d =  4.9327, dz2=  0.9814, dxz=  0.9887, dyz=  0.9884, dx2-y2=  0.9896, dxy=  0.9845, 
                 spin down    =   5.3699, s =  0.1958, 
                 spin down    =   5.3699, p =  0.2529, pz=  0.1005, px=  0.0750, py=  0.0774, 
                 spin down    =   5.3699, d =  4.9213, dz2=  0.9790, dxz=  0.9860, dyz=  0.9859, dx2-y2=  0.9868, dxy=  0.9836, 
                 polarization =   0.2780, s =  0.1137, p =  0.1530, d =  0.0114, 
     Atom #   7: total charge =  10.9101, s =  0.4724, p =  0.5735, d =  9.8642, 
                 spin up      =   5.4696, s =  0.2503, 
                 spin up      =   5.4696, p =  0.2844, pz=  0.0904, px=  0.0984, py=  0.0956, 
                 spin up      =   5.4696, d =  4.9348, dz2=  0.9894, dxz=  0.9855, dyz=  0.9850, dx2-y2=  0.9890, dxy=  0.9860, 
                 spin down    =   5.4405, s =  0.2221, 
                 spin down    =   5.4405, p =  0.2891, pz=  0.0910, px=  0.1007, py=  0.0974, 
                 spin down    =   5.4405, d =  4.9294, dz2=  0.9889, dxz=  0.9842, dyz=  0.9839, dx2-y2=  0.9879, dxy=  0.9845, 
                 polarization =   0.0291, s =  0.0282, p = -0.0046, d =  0.0055, 
     Atom #   8: total charge =  11.4069, s =  0.3670, p =  1.2863, d =  9.7536, 
                 spin up      =   5.7360, s =  0.1858, 
                 spin up      =   5.7360, p =  0.6342, pz=  0.2108, px=  0.2119, py=  0.2115, 
                 spin up      =   5.7360, d =  4.9160, dz2=  0.9830, dxz=  0.9832, dyz=  0.9830, dx2-y2=  0.9835, dxy=  0.9835, 
                 spin down    =   5.6709, s =  0.1811, 
                 spin down    =   5.6709, p =  0.6521, pz=  0.2163, px=  0.2183, py=  0.2176, 
                 spin down    =   5.6709, d =  4.8376, dz2=  0.9758, dxz=  0.9632, dyz=  0.9623, dx2-y2=  0.9728, dxy=  0.9636, 
                 polarization =   0.0652, s =  0.0047, p = -0.0180, d =  0.0785, 
     Atom #   9: total charge =  11.0178, s =  0.5052, p =  0.6587, d =  9.8540, 
                 spin up      =   5.6480, s =  0.3095, 
                 spin up      =   5.6480, p =  0.4058, pz=  0.1608, px=  0.1572, py=  0.0878, 
                 spin up      =   5.6480, d =  4.9327, dz2=  0.9866, dxz=  0.9805, dyz=  0.9898, dx2-y2=  0.9850, dxy=  0.9908, 
                 spin down    =   5.3699, s =  0.1957, 
                 spin down    =   5.3699, p =  0.2528, pz=  0.0996, px=  0.0926, py=  0.0606, 
                 spin down    =   5.3699, d =  4.9213, dz2=  0.9858, dxz=  0.9781, dyz=  0.9878, dx2-y2=  0.9848, dxy=  0.9847, 
                 polarization =   0.2781, s =  0.1137, p =  0.1530, d =  0.0114, 
     Atom #  10: total charge =  14.5613, s =  1.6297, p =  2.9396, d =  9.9920, 
                 spin up      =   7.4168, s =  0.8129, 
                 spin up      =   7.4168, p =  1.6078, pz=  0.5434, px=  0.5299, py=  0.5345, 
                 spin up      =   7.4168, d =  4.9961, dz2=  0.9992, dxz=  0.9992, dyz=  0.9992, dx2-y2=  0.9992, dxy=  0.9992, 
                 spin down    =   7.1445, s =  0.8168, 
                 spin down    =   7.1445, p =  1.3317, pz=  0.4300, px=  0.4552, py=  0.4465, 
                 spin down    =   7.1445, d =  4.9960, dz2=  0.9992, dxz=  0.9992, dyz=  0.9992, dx2-y2=  0.9992, dxy=  0.9992, 
                 polarization =   0.2723, s = -0.0040, p =  0.2761, d =  0.0001, 
     Atom #  11: total charge =  10.9578, s =  0.5255, p =  0.5751, d =  9.8573, 
                 spin up      =   5.5995, s =  0.3065, 
                 spin up      =   5.5995, p =  0.3616, pz=  0.1444, px=  0.0700, py=  0.1472, 
                 spin up      =   5.5995, d =  4.9314, dz2=  0.9832, dxz=  0.9898, dyz=  0.9856, dx2-y2=  0.9845, dxy=  0.9884, 
                 spin down    =   5.3584, s =  0.2190, 
                 spin down    =   5.3584, p =  0.2135, pz=  0.0815, px=  0.0548, py=  0.0771, 
                 spin down    =   5.3584, d =  4.9259, dz2=  0.9827, dxz=  0.9888, dyz=  0.9840, dx2-y2=  0.9844, dxy=  0.9861, 
                 polarization =   0.2411, s =  0.0875, p =  0.1481, d =  0.0055, 
     Atom #  12: total charge =  10.9580, s =  0.5254, p =  0.5752, d =  9.8573, 
                 spin up      =   5.5996, s =  0.3065, 
                 spin up      =   5.5996, p =  0.3617, pz=  0.0809, px=  0.1424, py=  0.1384, 
                 spin up      =   5.5996, d =  4.9314, dz2=  0.9873, dxz=  0.9884, dyz=  0.9852, dx2-y2=  0.9853, dxy=  0.9853, 
                 spin down    =   5.3584, s =  0.2189, 
                 spin down    =   5.3584, p =  0.2135, pz=  0.0630, px=  0.0799, py=  0.0706, 
                 spin down    =   5.3584, d =  4.9259, dz2=  0.9861, dxz=  0.9871, dyz=  0.9827, dx2-y2=  0.9848, dxy=  0.9851, 
                 polarization =   0.2412, s =  0.0876, p =  0.1482, d =  0.0055, 
     Atom #  13: total charge =  10.9579, s =  0.5255, p =  0.5751, d =  9.8573, 
                 spin up      =   5.5995, s =  0.3065, 
                 spin up      =   5.5995, p =  0.3616, pz=  0.1455, px=  0.1478, py=  0.0683, 
                 spin up      =   5.5995, d =  4.9314, dz2=  0.9830, dxz=  0.9856, dyz=  0.9898, dx2-y2=  0.9848, dxy=  0.9882, 
                 spin down    =   5.3583, s =  0.2190, 
                 spin down    =   5.3583, p =  0.2135, pz=  0.0813, px=  0.0765, py=  0.0557, 
                 spin down    =   5.3583, d =  4.9259, dz2=  0.9828, dxz=  0.9840, dyz=  0.9885, dx2-y2=  0.9849, dxy=  0.9856, 
                 polarization =   0.2412, s =  0.0875, p =  0.1482, d =  0.0055, 
     Spilling Parameter:   0.0017
 
     PROJWFC      :   1m 0.30s CPU   1m 6.88s WALL

 
   This run was terminated on:  15:43:20   2Apr2021            

=------------------------------------------------------------------------------=
   JOB DONE.
=------------------------------------------------------------------------------=
