
     Program PWSCF v.6.5 starts on  5Mar2021 at 11:33:56 

     This program is part of the open-source Quantum ESPRESSO suite
     for quantum simulation of materials; please cite
         "P. Giannozzi et al., J. Phys.:Condens. Matter 21 395502 (2009);
         "P. Giannozzi et al., J. Phys.:Condens. Matter 29 465901 (2017);
          URL http://www.quantum-espresso.org", 
     in publications or presentations arising from this work. More details at
     http://www.quantum-espresso.org/quote

     Parallel version (MPI & OpenMP), running on      24 processor cores
     Number of MPI processes:                24
     Threads/MPI process:                     1

     MPI processes distributed on     1 nodes
     R & G space division:  proc/nbgrp/npool/nimage =      24
     Waiting for input...
     Reading input from standard input

     Current dimensions of program PWSCF are:
     Max number of different atomic species (ntypx) = 10
     Max number of k-points (npk) =  40000
     Max angular momentum in pseudopotentials (lmaxx) =  3
               file Ag.pbe-dn-kjpaw_psl.0.1.UPF: wavefunction(s)  5S 5P 4D renormalized
               file Bi.pbe-dn-kjpaw_psl.1.0.0.UPF: wavefunction(s)  6P 5D renormalized

     gamma-point specific algorithms are used

     Subspace diagonalization in iterative solution of the eigenvalue problem:
     one sub-group per band group will be used
     scalapack distributed-memory algorithm (size of sub-group:  4*  4 procs)

 
     Parallelization info
     --------------------
     sticks:   dense  smooth     PW     G-vecs:    dense   smooth      PW
     Min        2516    2148    535               465600   367032   45855
     Max        2518    2150    538               465610   367046   45862
     Sum       60425   51577  12893             11174549  8808945 1100629
 


     bravais-lattice index     =            1
     lattice parameter (alat)  =      45.0000  a.u.
     unit-cell volume          =   91125.0000 (a.u.)^3
     number of atoms/cell      =           13
     number of atomic types    =            2
     number of electrons       =       147.00
     number of Kohn-Sham states=           89
     kinetic-energy cutoff     =      80.0000  Ry
     charge density cutoff     =     375.0000  Ry
     convergence threshold     =      1.0E-08
     mixing beta               =       0.7000
     number of iterations used =            8  local-TF  mixing
     Exchange-correlation= SLA PW PBX PBC
                           (   1   4   3   4   0   0   0)

     celldm(1)=  45.000000  celldm(2)=   0.000000  celldm(3)=   0.000000
     celldm(4)=   0.000000  celldm(5)=   0.000000  celldm(6)=   0.000000

     crystal axes: (cart. coord. in units of alat)
               a(1) = (   1.000000   0.000000   0.000000 )  
               a(2) = (   0.000000   1.000000   0.000000 )  
               a(3) = (   0.000000   0.000000   1.000000 )  

     reciprocal axes: (cart. coord. in units 2 pi/alat)
               b(1) = (  1.000000  0.000000  0.000000 )  
               b(2) = (  0.000000  1.000000  0.000000 )  
               b(3) = (  0.000000  0.000000  1.000000 )  


     PseudoPot. # 1 for Ag read from file:
     ../../pseudo/Ag.pbe-dn-kjpaw_psl.0.1.UPF
     MD5 check sum: 2edc915f30f03476250949c796a6a376
     Pseudo is Projector augmented-wave + core cor, Zval = 11.0
     Generated using "atomic" code by A. Dal Corso v.5.0.2 svn rev. 9415
     Shape of augmentation charge: PSQ
     Using radial grid of 1237 points,  6 beta functions with: 
                l(1) =   0
                l(2) =   0
                l(3) =   1
                l(4) =   1
                l(5) =   2
                l(6) =   2
     Q(r) pseudized with 0 coefficients 


     PseudoPot. # 2 for Bi read from file:
     ../../pseudo/Bi.pbe-dn-kjpaw_psl.1.0.0.UPF
     MD5 check sum: 266ded784ae3bc462508ed03f0f37963
     Pseudo is Projector augmented-wave + core cor, Zval = 15.0
     Generated using "atomic" code by A. Dal Corso v.6.2.2
     Shape of augmentation charge: PSQ
     Using radial grid of 1283 points,  6 beta functions with: 
                l(1) =   0
                l(2) =   0
                l(3) =   1
                l(4) =   1
                l(5) =   2
                l(6) =   2
     Q(r) pseudized with 0 coefficients 


     atomic species   valence    mass     pseudopotential
        Ag            11.00   107.87000     Ag( 1.00)
        Bi            15.00   208.98000     Bi( 1.00)

     Starting magnetic structure 
     atomic species   magnetization
        Ag           0.500
        Bi           0.500

     No symmetry found


                                    s                        frac. trans.

      isym =  1     identity                                     

 cryst.   s( 1) = (     1          0          0      )
                  (     0          1          0      )
                  (     0          0          1      )

 cart.    s( 1) = (  1.0000000  0.0000000  0.0000000 )
                  (  0.0000000  1.0000000  0.0000000 )
                  (  0.0000000  0.0000000  1.0000000 )


     point group C_1 (1)    
     there are  1 classes
     the character table:

       E    
A      1.00

     the symmetry operations in each class and the name of the first element:

     E        1
          identity                                               

   Cartesian axes

     site n.     atom                  positions (alat units)
         1           Ag  tau(   1) = (   0.0988109   0.0966331   0.1902469  )
         2           Ag  tau(   2) = (   0.1196107   0.2075505   0.2375768  )
         3           Ag  tau(   3) = (   0.2876886   0.1468791   0.1531837  )
         4           Ag  tau(   4) = (   0.2069600   0.1222484   0.2414478  )
         5           Ag  tau(   5) = (   0.2319628   0.1372512   0.0446529  )
         6           Ag  tau(   6) = (   0.2502494   0.2473861   0.0947637  )
         7           Ag  tau(   7) = (   0.1142332   0.1068728   0.0678335  )
         8           Ag  tau(   8) = (   0.1732104   0.1705318   0.1395679  )
         9           Ag  tau(   9) = (   0.1463656   0.2848783   0.1469125  )
        10           Bi  tau(  10) = (   0.2401113   0.2427345   0.2209087  )
        11           Ag  tau(  11) = (   0.0606242   0.1990652   0.1306754  )
        12           Ag  tau(  12) = (   0.1429471   0.2242094   0.0407165  )
        13           Ag  tau(  13) = (   0.2046871   0.0584033   0.1370746  )

   Crystallographic axes

     site n.     atom                  positions (cryst. coord.)
         1           Ag  tau(   1) = (  0.0988109  0.0966331  0.1902469  )
         2           Ag  tau(   2) = (  0.1196107  0.2075505  0.2375768  )
         3           Ag  tau(   3) = (  0.2876886  0.1468791  0.1531837  )
         4           Ag  tau(   4) = (  0.2069600  0.1222484  0.2414478  )
         5           Ag  tau(   5) = (  0.2319628  0.1372512  0.0446529  )
         6           Ag  tau(   6) = (  0.2502494  0.2473861  0.0947637  )
         7           Ag  tau(   7) = (  0.1142332  0.1068728  0.0678335  )
         8           Ag  tau(   8) = (  0.1732104  0.1705318  0.1395679  )
         9           Ag  tau(   9) = (  0.1463656  0.2848783  0.1469125  )
        10           Bi  tau(  10) = (  0.2401113  0.2427345  0.2209087  )
        11           Ag  tau(  11) = (  0.0606242  0.1990652  0.1306754  )
        12           Ag  tau(  12) = (  0.1429471  0.2242094  0.0407165  )
        13           Ag  tau(  13) = (  0.2046871  0.0584033  0.1370746  )

     number of k points=     1  Fermi-Dirac smearing, width (Ry)=  0.0007
                       cart. coord. in units 2pi/alat
        k(    1) = (   0.0000000   0.0000000   0.0000000), wk =   1.0000000

                       cryst. coord.
        k(    1) = (   0.0000000   0.0000000   0.0000000), wk =   1.0000000

     Dense  grid:  5587275 G-vectors     FFT dimensions: ( 288, 288, 288)

     Smooth grid:  4404473 G-vectors     FFT dimensions: ( 270, 270, 270)

     Dynamical RAM for                 wfc:      31.15 MB

     Dynamical RAM for     wfc (w. buffer):      93.46 MB

     Dynamical RAM for           str. fact:       7.10 MB

     Dynamical RAM for           local pot:       0.00 MB

     Dynamical RAM for          nlocal pot:      81.90 MB

     Dynamical RAM for                qrad:      22.23 MB

     Dynamical RAM for          rho,v,vnew:      66.88 MB

     Dynamical RAM for               rhoin:      22.29 MB

     Dynamical RAM for            rho*nmix:     113.67 MB

     Dynamical RAM for           G-vectors:      14.72 MB

     Dynamical RAM for          h,s,v(r/c):       0.18 MB

     Dynamical RAM for          <psi|beta>:       0.16 MB

     Dynamical RAM for                 psi:     124.61 MB

     Dynamical RAM for                hpsi:     124.61 MB

     Dynamical RAM for                spsi:     124.61 MB

     Dynamical RAM for      wfcinit/wfcrot:      82.22 MB

     Dynamical RAM for           addusdens:     706.91 MB

     Estimated static dynamical RAM per process >     478.47 MB

     Estimated max dynamical RAM per process >       1.16 GB

     Estimated total dynamical RAM >      27.78 GB
     Generating pointlists ...
     new r_m :   0.0464 (alat units)  2.0900 (a.u.) for type    1
     new r_m :   0.0522 (alat units)  2.3506 (a.u.) for type    2

     Check: negative core charge=   -0.000001

     Initial potential from superposition of free atoms

     starting charge  146.99440, renormalised to  147.00000
     Starting wfcs are  117 randomized atomic wfcs
     Checking if some PAW data can be deallocated... 
       PAW data deallocated on    2 nodes for type:  1
       PAW data deallocated on   22 nodes for type:  2

     total cpu time spent up to now is      119.6 secs

     Self-consistent Calculation

     iteration #  1     ecut=    80.00 Ry     beta= 0.70
     Davidson diagonalization with overlap
     ethr =  1.00E-02,  avg # of iterations =  3.5

     total cpu time spent up to now is      378.7 secs

     total energy              =   -5168.68889435 Ry
     Harris-Foulkes estimate   =   -5165.22655340 Ry
     estimated scf accuracy    <       4.16377939 Ry

     total magnetization       =     5.00 Bohr mag/cell
     absolute magnetization    =     5.00 Bohr mag/cell

     iteration #  2     ecut=    80.00 Ry     beta= 0.70
     Davidson diagonalization with overlap
     ethr =  2.83E-03,  avg # of iterations =  1.0

     total cpu time spent up to now is      609.5 secs

     total energy              =   -5169.22126706 Ry
     Harris-Foulkes estimate   =   -5168.87475766 Ry
     estimated scf accuracy    <       0.64047743 Ry

     total magnetization       =     3.00 Bohr mag/cell
     absolute magnetization    =     3.08 Bohr mag/cell

     iteration #  3     ecut=    80.00 Ry     beta= 0.70
     Davidson diagonalization with overlap
     ethr =  4.36E-04,  avg # of iterations =  3.5

     total cpu time spent up to now is      852.3 secs

     total energy              =   -5169.25904773 Ry
     Harris-Foulkes estimate   =   -5169.27173743 Ry
     estimated scf accuracy    <       0.07562412 Ry

     total magnetization       =     3.00 Bohr mag/cell
     absolute magnetization    =     3.03 Bohr mag/cell

     iteration #  4     ecut=    80.00 Ry     beta= 0.70
     Davidson diagonalization with overlap
     ethr =  5.14E-05,  avg # of iterations =  9.0

     total cpu time spent up to now is     1146.5 secs

     total energy              =   -5169.26465258 Ry
     Harris-Foulkes estimate   =   -5169.27124001 Ry
     estimated scf accuracy    <       0.03252162 Ry

     total magnetization       =     3.00 Bohr mag/cell
     absolute magnetization    =     3.10 Bohr mag/cell

     iteration #  5     ecut=    80.00 Ry     beta= 0.70
     Davidson diagonalization with overlap
     ethr =  2.21E-05,  avg # of iterations =  3.0

     total cpu time spent up to now is     1377.0 secs

     total energy              =   -5169.26196805 Ry
     Harris-Foulkes estimate   =   -5169.26628944 Ry
     estimated scf accuracy    <       0.01872496 Ry

     total magnetization       =     3.00 Bohr mag/cell
     absolute magnetization    =     3.13 Bohr mag/cell

     iteration #  6     ecut=    80.00 Ry     beta= 0.70
     Davidson diagonalization with overlap
     ethr =  1.27E-05,  avg # of iterations = 11.5

     total cpu time spent up to now is     1654.3 secs

     total energy              =   -5169.26063727 Ry
     Harris-Foulkes estimate   =   -5169.26290327 Ry
     estimated scf accuracy    <       0.01117887 Ry

     total magnetization       =     3.00 Bohr mag/cell
     absolute magnetization    =     3.17 Bohr mag/cell

     iteration #  7     ecut=    80.00 Ry     beta= 0.70
     Davidson diagonalization with overlap
     ethr =  7.60E-06,  avg # of iterations = 13.5

     total cpu time spent up to now is     1940.1 secs

     total energy              =   -5169.26090123 Ry
     Harris-Foulkes estimate   =   -5169.26131707 Ry
     estimated scf accuracy    <       0.00617883 Ry

     total magnetization       =     3.00 Bohr mag/cell
     absolute magnetization    =     3.15 Bohr mag/cell

     iteration #  8     ecut=    80.00 Ry     beta= 0.70
     Davidson diagonalization with overlap
     ethr =  4.20E-06,  avg # of iterations = 11.0

     total cpu time spent up to now is     2204.3 secs

     total energy              =   -5169.26220434 Ry
     Harris-Foulkes estimate   =   -5169.26109967 Ry
     estimated scf accuracy    <       0.00422878 Ry

     total magnetization       =     3.00 Bohr mag/cell
     absolute magnetization    =     3.15 Bohr mag/cell

     iteration #  9     ecut=    80.00 Ry     beta= 0.70
     Davidson diagonalization with overlap
     ethr =  2.88E-06,  avg # of iterations = 11.5

     total cpu time spent up to now is     2489.5 secs

     total energy              =   -5169.26328727 Ry
     Harris-Foulkes estimate   =   -5169.26235349 Ry
     estimated scf accuracy    <       0.00267997 Ry

     total magnetization       =     3.00 Bohr mag/cell
     absolute magnetization    =     3.14 Bohr mag/cell

     iteration # 10     ecut=    80.00 Ry     beta= 0.70
     Davidson diagonalization with overlap
     ethr =  1.82E-06,  avg # of iterations =  8.5

     total cpu time spent up to now is     2770.3 secs

     total energy              =   -5169.26310730 Ry
     Harris-Foulkes estimate   =   -5169.26336595 Ry
     estimated scf accuracy    <       0.00150936 Ry

     total magnetization       =     3.00 Bohr mag/cell
     absolute magnetization    =     3.14 Bohr mag/cell

     iteration # 11     ecut=    80.00 Ry     beta= 0.70
     Davidson diagonalization with overlap
     ethr =  1.03E-06,  avg # of iterations =  5.5

     total cpu time spent up to now is     3014.0 secs

     total energy              =   -5169.26266422 Ry
     Harris-Foulkes estimate   =   -5169.26312642 Ry
     estimated scf accuracy    <       0.00098463 Ry

     total magnetization       =     3.00 Bohr mag/cell
     absolute magnetization    =     3.14 Bohr mag/cell

     iteration # 12     ecut=    80.00 Ry     beta= 0.70
     Davidson diagonalization with overlap
     ethr =  6.70E-07,  avg # of iterations = 12.0

     total cpu time spent up to now is     3283.4 secs

     total energy              =   -5169.26226351 Ry
     Harris-Foulkes estimate   =   -5169.26269358 Ry
     estimated scf accuracy    <       0.00056714 Ry

     total magnetization       =     3.00 Bohr mag/cell
     absolute magnetization    =     3.15 Bohr mag/cell

     iteration # 13     ecut=    80.00 Ry     beta= 0.70
     Davidson diagonalization with overlap
     ethr =  3.86E-07,  avg # of iterations =  7.5

     total cpu time spent up to now is     3526.5 secs

     total energy              =   -5169.26226178 Ry
     Harris-Foulkes estimate   =   -5169.26227044 Ry
     estimated scf accuracy    <       0.00032143 Ry

     total magnetization       =     3.00 Bohr mag/cell
     absolute magnetization    =     3.14 Bohr mag/cell

     iteration # 14     ecut=    80.00 Ry     beta= 0.70
     Davidson diagonalization with overlap
     ethr =  2.19E-07,  avg # of iterations =  5.0

     total cpu time spent up to now is     3768.6 secs

     total energy              =   -5169.26238291 Ry
     Harris-Foulkes estimate   =   -5169.26226885 Ry
     estimated scf accuracy    <       0.00019676 Ry

     total magnetization       =     3.00 Bohr mag/cell
     absolute magnetization    =     3.14 Bohr mag/cell

     iteration # 15     ecut=    80.00 Ry     beta= 0.70
     Davidson diagonalization with overlap
     ethr =  1.34E-07,  avg # of iterations =  5.0

     total cpu time spent up to now is     4008.7 secs

     total energy              =   -5169.26241574 Ry
     Harris-Foulkes estimate   =   -5169.26238516 Ry
     estimated scf accuracy    <       0.00011518 Ry

     total magnetization       =     3.00 Bohr mag/cell
     absolute magnetization    =     3.14 Bohr mag/cell

     iteration # 16     ecut=    80.00 Ry     beta= 0.70
     Davidson diagonalization with overlap
     ethr =  7.84E-08,  avg # of iterations =  2.5

     total cpu time spent up to now is     4240.4 secs

     total energy              =   -5169.26242600 Ry
     Harris-Foulkes estimate   =   -5169.26241652 Ry
     estimated scf accuracy    <       0.00006998 Ry

     total magnetization       =     3.00 Bohr mag/cell
     absolute magnetization    =     3.14 Bohr mag/cell

     iteration # 17     ecut=    80.00 Ry     beta= 0.70
     Davidson diagonalization with overlap
     ethr =  4.76E-08,  avg # of iterations =  3.0

     total cpu time spent up to now is     4472.9 secs

     total energy              =   -5169.26247477 Ry
     Harris-Foulkes estimate   =   -5169.26242751 Ry
     estimated scf accuracy    <       0.00002807 Ry

     total magnetization       =     3.00 Bohr mag/cell
     absolute magnetization    =     3.14 Bohr mag/cell

     iteration # 18     ecut=    80.00 Ry     beta= 0.70
     Davidson diagonalization with overlap
     ethr =  1.91E-08,  avg # of iterations =  3.0

     total cpu time spent up to now is     4706.7 secs

     total energy              =   -5169.26250728 Ry
     Harris-Foulkes estimate   =   -5169.26247559 Ry
     estimated scf accuracy    <       0.00001389 Ry

     total magnetization       =     3.00 Bohr mag/cell
     absolute magnetization    =     3.14 Bohr mag/cell

     iteration # 19     ecut=    80.00 Ry     beta= 0.70
     Davidson diagonalization with overlap
     ethr =  9.45E-09,  avg # of iterations =  1.5

     total cpu time spent up to now is     4930.3 secs

     total energy              =   -5169.26251936 Ry
     Harris-Foulkes estimate   =   -5169.26250756 Ry
     estimated scf accuracy    <       0.00000685 Ry

     total magnetization       =     3.00 Bohr mag/cell
     absolute magnetization    =     3.14 Bohr mag/cell

     iteration # 20     ecut=    80.00 Ry     beta= 0.70
     Davidson diagonalization with overlap
     ethr =  4.66E-09,  avg # of iterations =  1.0

     total cpu time spent up to now is     5153.5 secs

     total energy              =   -5169.26252600 Ry
     Harris-Foulkes estimate   =   -5169.26251944 Ry
     estimated scf accuracy    <       0.00000373 Ry

     total magnetization       =     3.00 Bohr mag/cell
     absolute magnetization    =     3.14 Bohr mag/cell

     iteration # 21     ecut=    80.00 Ry     beta= 0.70
     Davidson diagonalization with overlap
     ethr =  2.54E-09,  avg # of iterations =  2.0

     total cpu time spent up to now is     5390.4 secs

     total energy              =   -5169.26252787 Ry
     Harris-Foulkes estimate   =   -5169.26252610 Ry
     estimated scf accuracy    <       0.00000127 Ry

     total magnetization       =     3.00 Bohr mag/cell
     absolute magnetization    =     3.14 Bohr mag/cell

     iteration # 22     ecut=    80.00 Ry     beta= 0.70
     Davidson diagonalization with overlap
     ethr =  8.65E-10,  avg # of iterations =  2.5

     total cpu time spent up to now is     5624.3 secs

     total energy              =   -5169.26252822 Ry
     Harris-Foulkes estimate   =   -5169.26252792 Ry
     estimated scf accuracy    <       0.00000051 Ry

     total magnetization       =     3.00 Bohr mag/cell
     absolute magnetization    =     3.14 Bohr mag/cell

     iteration # 23     ecut=    80.00 Ry     beta= 0.70
     Davidson diagonalization with overlap
     ethr =  3.50E-10,  avg # of iterations =  1.5

     total cpu time spent up to now is     5851.6 secs

     total energy              =   -5169.26252849 Ry
     Harris-Foulkes estimate   =   -5169.26252823 Ry
     estimated scf accuracy    <       0.00000021 Ry

     total magnetization       =     3.00 Bohr mag/cell
     absolute magnetization    =     3.14 Bohr mag/cell

     iteration # 24     ecut=    80.00 Ry     beta= 0.70
     Davidson diagonalization with overlap
     ethr =  1.40E-10,  avg # of iterations =  2.5

     total cpu time spent up to now is     6082.2 secs

     total energy              =   -5169.26252868 Ry
     Harris-Foulkes estimate   =   -5169.26252850 Ry
     estimated scf accuracy    <       0.00000007 Ry

     total magnetization       =     3.00 Bohr mag/cell
     absolute magnetization    =     3.14 Bohr mag/cell

     iteration # 25     ecut=    80.00 Ry     beta= 0.70
     Davidson diagonalization with overlap
     ethr =  5.07E-11,  avg # of iterations =  3.0

     total cpu time spent up to now is     6317.5 secs

     total energy              =   -5169.26252891 Ry
     Harris-Foulkes estimate   =   -5169.26252868 Ry
     estimated scf accuracy    <       0.00000004 Ry

     total magnetization       =     3.00 Bohr mag/cell
     absolute magnetization    =     3.14 Bohr mag/cell

     iteration # 26     ecut=    80.00 Ry     beta= 0.70
     Davidson diagonalization with overlap
     ethr =  2.69E-11,  avg # of iterations =  2.5

     total cpu time spent up to now is     6547.6 secs

     total energy              =   -5169.26252902 Ry
     Harris-Foulkes estimate   =   -5169.26252891 Ry
     estimated scf accuracy    <       0.00000001 Ry

     total magnetization       =     3.00 Bohr mag/cell
     absolute magnetization    =     3.14 Bohr mag/cell

     iteration # 27     ecut=    80.00 Ry     beta= 0.70
     Davidson diagonalization with overlap
     ethr =  9.52E-12,  avg # of iterations =  3.0
 
     Magnetic moment per site:
     atom:    1    charge:    9.2277    magn:    0.0512    constr:    0.0000
     atom:    2    charge:    9.2281    magn:    0.0703    constr:    0.0000
     atom:    3    charge:    9.2282    magn:    0.0703    constr:    0.0000
     atom:    4    charge:    9.2281    magn:    0.0703    constr:    0.0000
     atom:    5    charge:    9.2277    magn:    0.0512    constr:    0.0000
     atom:    6    charge:    9.2283    magn:    0.0703    constr:    0.0000
     atom:    7    charge:    9.2308    magn:    0.0280    constr:    0.0000
     atom:    8    charge:    9.3245    magn:    0.1106    constr:    0.0000
     atom:    9    charge:    9.2283    magn:    0.0703    constr:    0.0000
     atom:   10    charge:   12.6160    magn:    0.1157    constr:    0.0000
     atom:   11    charge:    9.2276    magn:    0.0511    constr:    0.0000
     atom:   12    charge:    9.2277    magn:    0.0512    constr:    0.0000
     atom:   13    charge:    9.2276    magn:    0.0512    constr:    0.0000

     total cpu time spent up to now is     6768.1 secs

     End of self-consistent calculation

 ------ SPIN UP ------------


          k = 0.0000 0.0000 0.0000 (550315 PWs)   bands (ev):

   -26.3238 -26.3009 -26.3009 -26.2113 -26.2113 -14.4641  -9.8867  -9.5786
    -9.5785  -9.5360  -9.5359  -9.4619  -8.6581  -8.6578  -8.5428  -8.5427
    -8.5192  -8.4964  -8.4142  -8.4142  -8.3995  -8.3995  -8.3461  -8.3459
    -8.2757  -8.2755  -8.1731  -8.1729  -8.1512  -8.1287  -8.0442  -8.0441
    -8.0103  -8.0100  -7.7421  -7.7298  -7.7235  -7.7232  -7.7101  -7.7097
    -7.6816  -7.6813  -7.4951  -7.4582  -7.4581  -7.3133  -7.3132  -7.1918
    -7.1917  -7.1740  -7.1740  -7.0962  -7.0574  -7.0573  -7.0529  -7.0527
    -7.0198  -7.0159  -7.0159  -6.9367  -6.9257  -6.9256  -6.8954  -6.8952
    -6.8543  -6.8541  -6.7849  -6.2488  -6.2486  -5.6103  -4.6277  -4.6276
    -3.9060  -3.9057  -3.8233  -2.8099  -2.5306  -2.5304  -2.2862  -1.8340
    -1.8339  -1.5003  -1.5002  -1.4516  -1.4514  -0.5611  -0.3120  -0.3117
    -0.2937

     occupation numbers 
     1.0000   1.0000   1.0000   1.0000   1.0000   1.0000   1.0000   1.0000
     1.0000   1.0000   1.0000   1.0000   1.0000   1.0000   1.0000   1.0000
     1.0000   1.0000   1.0000   1.0000   1.0000   1.0000   1.0000   1.0000
     1.0000   1.0000   1.0000   1.0000   1.0000   1.0000   1.0000   1.0000
     1.0000   1.0000   1.0000   1.0000   1.0000   1.0000   1.0000   1.0000
     1.0000   1.0000   1.0000   1.0000   1.0000   1.0000   1.0000   1.0000
     1.0000   1.0000   1.0000   1.0000   1.0000   1.0000   1.0000   1.0000
     1.0000   1.0000   1.0000   1.0000   1.0000   1.0000   1.0000   1.0000
     1.0000   1.0000   1.0000   1.0000   1.0000   1.0000   1.0000   1.0000
     1.0000   1.0000   1.0000   0.0000   0.0000   0.0000   0.0000   0.0000
     0.0000   0.0000   0.0000   0.0000   0.0000   0.0000   0.0000   0.0000
     0.0000

 ------ SPIN DOWN ----------


          k = 0.0000 0.0000 0.0000 (550315 PWs)   bands (ev):

   -26.2640 -26.2582 -26.2582 -26.2073 -26.2073 -14.3123  -9.8344  -9.5045
    -9.5044  -9.4929  -9.4928  -9.3932  -8.6006  -8.6003  -8.4836  -8.4834
    -8.4289  -8.3971  -8.3607  -8.3607  -8.3504  -8.3503  -8.2735  -8.2733
    -8.2127  -8.2125  -8.1048  -8.0861  -8.0859  -8.0079  -7.9801  -7.9801
    -7.9392  -7.9389  -7.6917  -7.6755  -7.6752  -7.6747  -7.6593  -7.6589
    -7.6353  -7.6350  -7.4233  -7.3954  -7.3953  -7.2477  -7.2476  -7.1413
    -7.1411  -7.1271  -7.1270  -7.0245  -7.0117  -7.0116  -7.0081  -7.0078
    -6.9676  -6.9675  -6.9596  -6.8811  -6.8763  -6.8763  -6.8369  -6.8367
    -6.7917  -6.7915  -6.7524  -6.0824  -6.0822  -5.4920  -4.5007  -4.5006
    -3.5815  -3.5812  -3.4825  -2.6694  -2.3427  -2.3425  -2.0598  -1.6007
    -1.6005  -1.2485  -1.2484  -1.1831  -1.1830  -0.4213  -0.2612  -0.1117
    -0.1089

     occupation numbers 
     1.0000   1.0000   1.0000   1.0000   1.0000   1.0000   1.0000   1.0000
     1.0000   1.0000   1.0000   1.0000   1.0000   1.0000   1.0000   1.0000
     1.0000   1.0000   1.0000   1.0000   1.0000   1.0000   1.0000   1.0000
     1.0000   1.0000   1.0000   1.0000   1.0000   1.0000   1.0000   1.0000
     1.0000   1.0000   1.0000   1.0000   1.0000   1.0000   1.0000   1.0000
     1.0000   1.0000   1.0000   1.0000   1.0000   1.0000   1.0000   1.0000
     1.0000   1.0000   1.0000   1.0000   1.0000   1.0000   1.0000   1.0000
     1.0000   1.0000   1.0000   1.0000   1.0000   1.0000   1.0000   1.0000
     1.0000   1.0000   1.0000   1.0000   1.0000   1.0000   1.0000   1.0000
     0.0000   0.0000   0.0000   0.0000   0.0000   0.0000   0.0000   0.0000
     0.0000   0.0000   0.0000   0.0000   0.0000   0.0000   0.0000   0.0000
     0.0000

     the Fermi energy is    -3.7056 ev

!    total energy              =   -5169.26252912 Ry
     Harris-Foulkes estimate   =   -5169.26252902 Ry
     estimated scf accuracy    <          6.3E-09 Ry

     total all-electron energy =   -170648.313191 Ry

     The total energy is the sum of the following terms:

     one-electron contribution =   -5009.52924747 Ry
     hartree contribution      =    2596.70240956 Ry
     xc contribution           =    -459.87955112 Ry
     ewald contribution        =    1609.96945203 Ry
     one-center paw contrib.   =   -3906.52559204 Ry
      -> PAW hartree energy AE =      66.87727201 Ry
      -> PAW hartree energy PS =     -66.72976309 Ry
      -> PAW xc energy AE      =    -297.86704826 Ry
      -> PAW xc energy PS      =      35.22456736 Ry
      -> total E_H with PAW    =    2596.84991849 Ry
      -> total E_XC with PAW   =    -722.52203202 Ry
     smearing contrib. (-TS)   =      -0.00000008 Ry

     total magnetization       =     3.00 Bohr mag/cell
     absolute magnetization    =     3.14 Bohr mag/cell

     convergence has been achieved in  27 iterations

     Writing output data file ./tmp/ag12Bil.save/
 
     init_run     :    111.90s CPU    115.41s WALL (       1 calls)
     electrons    :   6487.62s CPU   6649.41s WALL (       1 calls)

     Called by init_run:
     wfcinit      :     62.84s CPU     63.66s WALL (       1 calls)
     wfcinit:atom :      0.49s CPU      0.63s WALL (       2 calls)
     wfcinit:wfcr :     61.35s CPU     61.80s WALL (       2 calls)
     potinit      :     13.62s CPU     14.26s WALL (       1 calls)
     hinit0       :      4.66s CPU      4.80s WALL (       1 calls)

     Called by electrons:
     c_bands      :   3178.54s CPU   3216.19s WALL (      27 calls)
     sum_band     :   2034.53s CPU   2090.41s WALL (      27 calls)
     v_of_rho     :    250.28s CPU    261.69s WALL (      28 calls)
     v_h          :     17.27s CPU     17.89s WALL (      28 calls)
     v_xc         :    233.01s CPU    243.79s WALL (      28 calls)
     newd         :    483.77s CPU    530.27s WALL (      28 calls)
     PAW_pot      :     36.33s CPU     37.95s WALL (      28 calls)
     mix_rho      :    469.29s CPU    476.14s WALL (      27 calls)

     Called by c_bands:
     init_us_2    :     20.92s CPU     21.17s WALL (     110 calls)
     regterg      :   3090.87s CPU   3128.10s WALL (      54 calls)

     Called by sum_band:
     sum_band:bec :      0.03s CPU      0.03s WALL (      54 calls)
     addusdens    :   1356.04s CPU   1408.15s WALL (      27 calls)

     Called by *egterg:
     h_psi        :   2567.31s CPU   2578.82s WALL (     334 calls)
     s_psi        :    167.63s CPU    167.89s WALL (     334 calls)
     g_psi        :      4.73s CPU      4.77s WALL (     278 calls)
     rdiaghg      :      8.59s CPU      9.10s WALL (     332 calls)
     regterg:over :    138.15s CPU    138.46s WALL (     278 calls)
     regterg:upda :    139.78s CPU    141.37s WALL (     278 calls)
     regterg:last :     35.37s CPU     35.45s WALL (      54 calls)
     rdiaghg:chol :      0.32s CPU      0.33s WALL (     332 calls)
     rdiaghg:inve :      0.25s CPU      0.25s WALL (     332 calls)
     rdiaghg:para :      0.72s CPU      0.73s WALL (     664 calls)

     Called by h_psi:
     h_psi:calbec :    109.01s CPU    109.28s WALL (     334 calls)
     vloc_psi     :   2270.12s CPU   2280.95s WALL (     334 calls)
     add_vuspsi   :    175.33s CPU    175.69s WALL (     334 calls)

     General routines
     calbec       :    141.60s CPU    141.94s WALL (     388 calls)
     fft          :    281.06s CPU    286.71s WALL (     581 calls)
     ffts         :    314.98s CPU    317.80s WALL (     792 calls)
     fftw         :   2270.72s CPU   2281.88s WALL (   13344 calls)
     interpolate  :     55.37s CPU     58.66s WALL (      56 calls)
 
     Parallel routines
     fft_scatt_xy :    452.18s CPU    454.90s WALL (   14717 calls)
     fft_scatt_yz :    800.02s CPU    804.45s WALL (   14717 calls)

     PAW routines
     PAW_pot      :     36.33s CPU     37.95s WALL (      28 calls)
 
     PWSCF        :      1h50m CPU      1h52m WALL

 
   This run was terminated on:  13:26:52   5Mar2021            

=------------------------------------------------------------------------------=
   JOB DONE.
=------------------------------------------------------------------------------=
