
     Program DOS v.6.5 starts on  7Mar2021 at 16:17:35 

     This program is part of the open-source Quantum ESPRESSO suite
     for quantum simulation of materials; please cite
         "P. Giannozzi et al., J. Phys.:Condens. Matter 21 395502 (2009);
         "P. Giannozzi et al., J. Phys.:Condens. Matter 29 465901 (2017);
          URL http://www.quantum-espresso.org", 
     in publications or presentations arising from this work. More details at
     http://www.quantum-espresso.org/quote

     Parallel version (MPI & OpenMP), running on      24 processor cores
     Number of MPI processes:                24
     Threads/MPI process:                     1

     MPI processes distributed on     1 nodes
     R & G space division:  proc/nbgrp/npool/nimage =      24

     Reading xml data from directory:

     ./tmp/ag12Bil.save/
     Message from routine  set_nelup_neldw :
     BEWARE: non-integer number of up and down electrons!

     IMPORTANT: XC functional enforced from input :
     Exchange-correlation= PBE
                           (   1   4   3   4   0   0   0)
     Any further DFT definition will be discarded
     Please, verify this is what you really want

               file Ag.pbe-dn-kjpaw_psl.0.1.UPF: wavefunction(s)  5S 5P 4D renormalized
               file Bi.pbe-dn-kjpaw_psl.1.0.0.UPF: wavefunction(s)  6P 5D renormalized
 
     Parallelization info
     --------------------
     sticks:   dense  smooth     PW     G-vecs:    dense   smooth      PW
     Min        2516    2148    535               465600   367032   45855
     Max        2518    2150    538               465610   367046   45862
     Sum       60425   51577  12893             11174549  8808945 1100629
 
     Generating pointlists ...
     new r_m :   0.0464 (alat units)  2.0900 (a.u.) for type    1
     new r_m :   0.0522 (alat units)  2.3506 (a.u.) for type    2

     Check: negative core charge=   -0.000001

     Gaussian broadening (read from file): ngauss,degauss= -99    0.000700

 
     DOS          :     53.71s CPU     56.93s WALL

 
   This run was terminated on:  16:18:32   7Mar2021            

=------------------------------------------------------------------------------=
   JOB DONE.
=------------------------------------------------------------------------------=
