
     Program PWSCF v.6.5 starts on  3Jun2020 at  2: 3: 9 

     This program is part of the open-source Quantum ESPRESSO suite
     for quantum simulation of materials; please cite
         "P. Giannozzi et al., J. Phys.:Condens. Matter 21 395502 (2009);
         "P. Giannozzi et al., J. Phys.:Condens. Matter 29 465901 (2017);
          URL http://www.quantum-espresso.org", 
     in publications or presentations arising from this work. More details at
     http://www.quantum-espresso.org/quote

     Parallel version (MPI & OpenMP), running on      24 processor cores
     Number of MPI processes:                24
     Threads/MPI process:                     1

     MPI processes distributed on     1 nodes
     R & G space division:  proc/nbgrp/npool/nimage =      24
     Waiting for input...
     Reading input from standard input

     Current dimensions of program PWSCF are:
     Max number of different atomic species (ntypx) = 10
     Max number of k-points (npk) =  40000
     Max angular momentum in pseudopotentials (lmaxx) =  3
               file Ag.pbe-dn-kjpaw_psl.0.1.UPF: wavefunction(s)  5S 5P 4D renormalized
               file Bi.pbe-dn-kjpaw_psl.1.0.0.UPF: wavefunction(s)  6P 5D renormalized

     gamma-point specific algorithms are used

     Subspace diagonalization in iterative solution of the eigenvalue problem:
     one sub-group per band group will be used
     scalapack distributed-memory algorithm (size of sub-group:  4*  4 procs)

 
     Parallelization info
     --------------------
     sticks:   dense  smooth     PW     G-vecs:    dense   smooth      PW
     Min        3053    1207    300               622265   154807   19332
     Max        3056    1212    302               622268   154812   19346
     Sum       73305   28997   7245             14934393  3715461  464125
 


     bravais-lattice index     =            1
     lattice parameter (alat)  =      45.0000  a.u.
     unit-cell volume          =   91125.0000 (a.u.)^3
     number of atoms/cell      =           13
     number of atomic types    =            2
     number of electrons       =       147.00
     number of Kohn-Sham states=           89
     kinetic-energy cutoff     =      45.0000  Ry
     charge density cutoff     =     455.0000  Ry
     convergence threshold     =      1.0E-08
     mixing beta               =       0.3000
     number of iterations used =            8  local-TF  mixing
     Exchange-correlation= SLA PW PBX PBC
                           (   1   4   3   4   0   0   0)
     nstep                     =           50


     celldm(1)=  45.000000  celldm(2)=   0.000000  celldm(3)=   0.000000
     celldm(4)=   0.000000  celldm(5)=   0.000000  celldm(6)=   0.000000

     crystal axes: (cart. coord. in units of alat)
               a(1) = (   1.000000   0.000000   0.000000 )  
               a(2) = (   0.000000   1.000000   0.000000 )  
               a(3) = (   0.000000   0.000000   1.000000 )  

     reciprocal axes: (cart. coord. in units 2 pi/alat)
               b(1) = (  1.000000  0.000000  0.000000 )  
               b(2) = (  0.000000  1.000000  0.000000 )  
               b(3) = (  0.000000  0.000000  1.000000 )  


     PseudoPot. # 1 for Ag read from file:
     ../../pseudo/Ag.pbe-dn-kjpaw_psl.0.1.UPF
     MD5 check sum: 2edc915f30f03476250949c796a6a376
     Pseudo is Projector augmented-wave + core cor, Zval = 11.0
     Generated using "atomic" code by A. Dal Corso v.5.0.2 svn rev. 9415
     Shape of augmentation charge: PSQ
     Using radial grid of 1237 points,  6 beta functions with: 
                l(1) =   0
                l(2) =   0
                l(3) =   1
                l(4) =   1
                l(5) =   2
                l(6) =   2
     Q(r) pseudized with 0 coefficients 


     PseudoPot. # 2 for Bi read from file:
     ../../pseudo/Bi.pbe-dn-kjpaw_psl.1.0.0.UPF
     MD5 check sum: 266ded784ae3bc462508ed03f0f37963
     Pseudo is Projector augmented-wave + core cor, Zval = 15.0
     Generated using "atomic" code by A. Dal Corso v.6.2.2
     Shape of augmentation charge: PSQ
     Using radial grid of 1283 points,  6 beta functions with: 
                l(1) =   0
                l(2) =   0
                l(3) =   1
                l(4) =   1
                l(5) =   2
                l(6) =   2
     Q(r) pseudized with 0 coefficients 


     atomic species   valence    mass     pseudopotential
        Ag            11.00   107.87000     Ag( 1.00)
        Bi            15.00   208.98000     Bi( 1.00)

     No symmetry found


                                    s                        frac. trans.

      isym =  1     identity                                     

 cryst.   s( 1) = (     1          0          0      )
                  (     0          1          0      )
                  (     0          0          1      )

 cart.    s( 1) = (  1.0000000  0.0000000  0.0000000 )
                  (  0.0000000  1.0000000  0.0000000 )
                  (  0.0000000  0.0000000  1.0000000 )


     point group C_1 (1)    
     there are  1 classes
     the character table:

       E    
A      1.00

     the symmetry operations in each class and the name of the first element:

     E        1
          identity                                               

   Cartesian axes

     site n.     atom                  positions (alat units)
         1           Ag  tau(   1) = (   0.1011539   0.0989378   0.1881267  )
         2           Ag  tau(   2) = (   0.1207838   0.2072089   0.2362641  )
         3           Ag  tau(   3) = (   0.2860535   0.1475655   0.1532565  )
         4           Ag  tau(   4) = (   0.2066141   0.1232978   0.2400700  )
         5           Ag  tau(   5) = (   0.2296247   0.1381301   0.0476565  )
         6           Ag  tau(   6) = (   0.2492634   0.2463878   0.0958489  )
         7           Ag  tau(   7) = (   0.1153383   0.1080711   0.0691934  )
         8           Ag  tau(   8) = (   0.1751915   0.1726653   0.1419541  )
         9           Ag  tau(   9) = (   0.1470522   0.2832503   0.1471214  )
        10           Bi  tau(  10) = (   0.2350251   0.2372775   0.2147228  )
        11           Ag  tau(  11) = (   0.0643238   0.1977599   0.1306397  )
        12           Ag  tau(  12) = (   0.1437416   0.2220170   0.0438561  )
        13           Ag  tau(  13) = (   0.2032953   0.0620746   0.1368506  )

   Crystallographic axes

     site n.     atom                  positions (cryst. coord.)
         1           Ag  tau(   1) = (  0.1011539  0.0989378  0.1881267  )
         2           Ag  tau(   2) = (  0.1207838  0.2072089  0.2362641  )
         3           Ag  tau(   3) = (  0.2860535  0.1475655  0.1532565  )
         4           Ag  tau(   4) = (  0.2066141  0.1232978  0.2400700  )
         5           Ag  tau(   5) = (  0.2296247  0.1381301  0.0476565  )
         6           Ag  tau(   6) = (  0.2492634  0.2463878  0.0958489  )
         7           Ag  tau(   7) = (  0.1153383  0.1080711  0.0691934  )
         8           Ag  tau(   8) = (  0.1751915  0.1726653  0.1419541  )
         9           Ag  tau(   9) = (  0.1470522  0.2832503  0.1471214  )
        10           Bi  tau(  10) = (  0.2350251  0.2372775  0.2147228  )
        11           Ag  tau(  11) = (  0.0643238  0.1977599  0.1306397  )
        12           Ag  tau(  12) = (  0.1437416  0.2220170  0.0438561  )
        13           Ag  tau(  13) = (  0.2032953  0.0620746  0.1368506  )

     number of k points=     1  Marzari-Vanderbilt smearing, width (Ry)=  0.0220
                       cart. coord. in units 2pi/alat
        k(    1) = (   0.0000000   0.0000000   0.0000000), wk =   2.0000000

                       cryst. coord.
        k(    1) = (   0.0000000   0.0000000   0.0000000), wk =   2.0000000

     Dense  grid:  7467197 G-vectors     FFT dimensions: ( 320, 320, 320)

     Smooth grid:  1857731 G-vectors     FFT dimensions: ( 200, 200, 200)

     Dynamical RAM for                 wfc:      13.14 MB

     Dynamical RAM for     wfc (w. buffer):      13.14 MB

     Dynamical RAM for           str. fact:       9.50 MB

     Dynamical RAM for           local pot:       0.00 MB

     Dynamical RAM for          nlocal pot:      34.55 MB

     Dynamical RAM for                qrad:      24.48 MB

     Dynamical RAM for          rho,v,vnew:      47.06 MB

     Dynamical RAM for               rhoin:      15.69 MB

     Dynamical RAM for            rho*nmix:      75.96 MB

     Dynamical RAM for           G-vectors:      18.39 MB

     Dynamical RAM for          h,s,v(r/c):       0.18 MB

     Dynamical RAM for          <psi|beta>:       0.16 MB

     Dynamical RAM for                 psi:      52.57 MB

     Dynamical RAM for                hpsi:      52.57 MB

     Dynamical RAM for                spsi:      52.57 MB

     Dynamical RAM for      wfcinit/wfcrot:      34.87 MB

     Dynamical RAM for           addusdens:     940.01 MB

     Dynamical RAM for          addusforce:    1061.12 MB

     Estimated static dynamical RAM per process >     307.70 MB

     Estimated max dynamical RAM per process >       1.34 GB

     Estimated total dynamical RAM >      32.08 GB

     Check: negative core charge=   -0.000001

     Initial potential from superposition of free atoms

     starting charge  146.99440, renormalised to  147.00000

     negative rho (up, down):  1.865E-03 0.000E+00
     Starting wfcs are  117 randomized atomic wfcs
     Checking if some PAW data can be deallocated... 
       PAW data deallocated on    2 nodes for type:  1
       PAW data deallocated on   22 nodes for type:  2

     total cpu time spent up to now is       65.8 secs

     Self-consistent Calculation

     iteration #  1     ecut=    45.00 Ry     beta= 0.30
     Davidson diagonalization with overlap
     ethr =  1.00E-02,  avg # of iterations =  3.0

     Threshold (ethr) on eigenvalues was too large:
     Diagonalizing with lowered threshold

     Davidson diagonalization with overlap
     ethr =  3.53E-04,  avg # of iterations =  5.0

     negative rho (up, down):  9.546E-04 0.000E+00

     total cpu time spent up to now is      195.7 secs

     total energy              =   -5169.30231014 Ry
     Harris-Foulkes estimate   =   -5169.36774291 Ry
     estimated scf accuracy    <       0.65119563 Ry

     iteration #  2     ecut=    45.00 Ry     beta= 0.30
     Davidson diagonalization with overlap
     ethr =  4.43E-04,  avg # of iterations =  1.0

     negative rho (up, down):  2.705E-03 0.000E+00

     total cpu time spent up to now is      269.4 secs

     total energy              =   -5169.14066147 Ry
     Harris-Foulkes estimate   =   -5169.30863898 Ry
     estimated scf accuracy    <       0.46274541 Ry

     iteration #  3     ecut=    45.00 Ry     beta= 0.30
     Davidson diagonalization with overlap
     ethr =  3.15E-04,  avg # of iterations =  3.0

     negative rho (up, down):  8.617E-04 0.000E+00

     total cpu time spent up to now is      347.4 secs

     total energy              =   -5169.20705641 Ry
     Harris-Foulkes estimate   =   -5169.21592518 Ry
     estimated scf accuracy    <       0.05446469 Ry

     iteration #  4     ecut=    45.00 Ry     beta= 0.30
     Davidson diagonalization with overlap
     ethr =  3.71E-05,  avg # of iterations = 11.0

     negative rho (up, down):  3.864E-04 0.000E+00

     total cpu time spent up to now is      433.3 secs

     total energy              =   -5169.20190061 Ry
     Harris-Foulkes estimate   =   -5169.21384785 Ry
     estimated scf accuracy    <       0.04117643 Ry

     iteration #  5     ecut=    45.00 Ry     beta= 0.30
     Davidson diagonalization with overlap
     ethr =  2.80E-05,  avg # of iterations =  4.0

     negative rho (up, down):  1.753E-04 0.000E+00

     total cpu time spent up to now is      509.6 secs

     total energy              =   -5169.20061249 Ry
     Harris-Foulkes estimate   =   -5169.20458354 Ry
     estimated scf accuracy    <       0.02068522 Ry

     iteration #  6     ecut=    45.00 Ry     beta= 0.30
     Davidson diagonalization with overlap
     ethr =  1.41E-05,  avg # of iterations =  9.0

     negative rho (up, down):  2.304E-04 0.000E+00

     total cpu time spent up to now is      589.6 secs

     total energy              =   -5169.19720586 Ry
     Harris-Foulkes estimate   =   -5169.20179303 Ry
     estimated scf accuracy    <       0.01616725 Ry

     iteration #  7     ecut=    45.00 Ry     beta= 0.30
     Davidson diagonalization with overlap
     ethr =  1.10E-05,  avg # of iterations = 10.0

     negative rho (up, down):  4.889E-04 0.000E+00

     total cpu time spent up to now is      677.3 secs

     total energy              =   -5169.20071635 Ry
     Harris-Foulkes estimate   =   -5169.20154562 Ry
     estimated scf accuracy    <       0.02145545 Ry

     iteration #  8     ecut=    45.00 Ry     beta= 0.30
     Davidson diagonalization with overlap
     ethr =  1.10E-05,  avg # of iterations =  1.0

     negative rho (up, down):  1.691E-02 0.000E+00

     total cpu time spent up to now is      751.9 secs

     total energy              =   -5169.19899566 Ry
     Harris-Foulkes estimate   =   -5169.20078425 Ry
     estimated scf accuracy    <       0.01997168 Ry

     iteration #  9     ecut=    45.00 Ry     beta= 0.30
     Davidson diagonalization with overlap
     ethr =  1.10E-05,  avg # of iterations =  7.0

     negative rho (up, down):  8.806E-02 0.000E+00

     total cpu time spent up to now is      830.1 secs

     total energy              =   -5169.20081000 Ry
     Harris-Foulkes estimate   =   -5169.19950476 Ry
     estimated scf accuracy    <       0.01224957 Ry

     iteration # 10     ecut=    45.00 Ry     beta= 0.30
     Davidson diagonalization with overlap
     ethr =  8.33E-06,  avg # of iterations =  4.0

     negative rho (up, down):  1.390E-01 0.000E+00

     total cpu time spent up to now is      906.7 secs

     total energy              =   -5169.20094588 Ry
     Harris-Foulkes estimate   =   -5169.20117529 Ry
     estimated scf accuracy    <       0.00699407 Ry

     iteration # 11     ecut=    45.00 Ry     beta= 0.30
     Davidson diagonalization with overlap
     ethr =  4.76E-06,  avg # of iterations = 12.0

     negative rho (up, down):  1.958E-01 0.000E+00

     total cpu time spent up to now is      992.3 secs

     total energy              =   -5169.20198902 Ry
     Harris-Foulkes estimate   =   -5169.20141399 Ry
     estimated scf accuracy    <       0.00292039 Ry

     iteration # 12     ecut=    45.00 Ry     beta= 0.30
     Davidson diagonalization with overlap
     ethr =  1.99E-06,  avg # of iterations = 13.0

     negative rho (up, down):  1.891E-01 0.000E+00

     total cpu time spent up to now is     1077.4 secs

     total energy              =   -5169.20162885 Ry
     Harris-Foulkes estimate   =   -5169.20218288 Ry
     estimated scf accuracy    <       0.00165611 Ry

     iteration # 13     ecut=    45.00 Ry     beta= 0.30
     Davidson diagonalization with overlap
     ethr =  1.13E-06,  avg # of iterations =  7.0

     negative rho (up, down):  1.709E-01 0.000E+00

     total cpu time spent up to now is     1155.4 secs

     total energy              =   -5169.20108965 Ry
     Harris-Foulkes estimate   =   -5169.20169245 Ry
     estimated scf accuracy    <       0.00115535 Ry

     iteration # 14     ecut=    45.00 Ry     beta= 0.30
     Davidson diagonalization with overlap
     ethr =  7.86E-07,  avg # of iterations = 10.0

     negative rho (up, down):  1.509E-01 0.000E+00

     total cpu time spent up to now is     1237.6 secs

     total energy              =   -5169.20028843 Ry
     Harris-Foulkes estimate   =   -5169.20123154 Ry
     estimated scf accuracy    <       0.00200042 Ry

     iteration # 15     ecut=    45.00 Ry     beta= 0.30
     Davidson diagonalization with overlap
     ethr =  7.86E-07,  avg # of iterations =  6.0

     negative rho (up, down):  1.300E-01 0.000E+00

     total cpu time spent up to now is     1316.8 secs

     total energy              =   -5169.19989328 Ry
     Harris-Foulkes estimate   =   -5169.20043895 Ry
     estimated scf accuracy    <       0.00067706 Ry

     iteration # 16     ecut=    45.00 Ry     beta= 0.30
     Davidson diagonalization with overlap
     ethr =  4.61E-07,  avg # of iterations =  7.0

     negative rho (up, down):  1.125E-01 0.000E+00

     total cpu time spent up to now is     1398.7 secs

     total energy              =   -5169.19967917 Ry
     Harris-Foulkes estimate   =   -5169.19999042 Ry
     estimated scf accuracy    <       0.00042731 Ry

     iteration # 17     ecut=    45.00 Ry     beta= 0.30
     Davidson diagonalization with overlap
     ethr =  2.91E-07,  avg # of iterations =  3.0

     negative rho (up, down):  9.370E-02 0.000E+00

     total cpu time spent up to now is     1474.9 secs

     total energy              =   -5169.19963817 Ry
     Harris-Foulkes estimate   =   -5169.19970876 Ry
     estimated scf accuracy    <       0.00031392 Ry

     iteration # 18     ecut=    45.00 Ry     beta= 0.30
     Davidson diagonalization with overlap
     ethr =  2.14E-07,  avg # of iterations =  8.0

     negative rho (up, down):  7.299E-02 0.000E+00

     total cpu time spent up to now is     1554.8 secs

     total energy              =   -5169.19953317 Ry
     Harris-Foulkes estimate   =   -5169.19965356 Ry
     estimated scf accuracy    <       0.00025904 Ry

     iteration # 19     ecut=    45.00 Ry     beta= 0.30
     Davidson diagonalization with overlap
     ethr =  1.76E-07,  avg # of iterations =  3.0

     negative rho (up, down):  6.539E-02 0.000E+00

     total cpu time spent up to now is     1631.8 secs

     total energy              =   -5169.19955050 Ry
     Harris-Foulkes estimate   =   -5169.19955800 Ry
     estimated scf accuracy    <       0.00016175 Ry

     iteration # 20     ecut=    45.00 Ry     beta= 0.30
     Davidson diagonalization with overlap
     ethr =  1.10E-07,  avg # of iterations =  1.0

     negative rho (up, down):  4.801E-02 0.000E+00

     total cpu time spent up to now is     1706.2 secs

     total energy              =   -5169.19962769 Ry
     Harris-Foulkes estimate   =   -5169.19955212 Ry
     estimated scf accuracy    <       0.00014052 Ry

     iteration # 21     ecut=    45.00 Ry     beta= 0.30
     Davidson diagonalization with overlap
     ethr =  9.56E-08,  avg # of iterations = 11.0

     negative rho (up, down):  5.240E-02 0.000E+00

     total cpu time spent up to now is     1787.5 secs

     total energy              =   -5169.19956453 Ry
     Harris-Foulkes estimate   =   -5169.19964332 Ry
     estimated scf accuracy    <       0.00011826 Ry

     iteration # 22     ecut=    45.00 Ry     beta= 0.30
     Davidson diagonalization with overlap
     ethr =  8.04E-08,  avg # of iterations =  3.0

     negative rho (up, down):  4.579E-02 0.000E+00

     total cpu time spent up to now is     1863.5 secs

     total energy              =   -5169.19954695 Ry
     Harris-Foulkes estimate   =   -5169.19957478 Ry
     estimated scf accuracy    <       0.00005471 Ry

     iteration # 23     ecut=    45.00 Ry     beta= 0.30
     Davidson diagonalization with overlap
     ethr =  3.72E-08,  avg # of iterations =  2.0

     negative rho (up, down):  3.524E-02 0.000E+00

     total cpu time spent up to now is     1938.8 secs

     total energy              =   -5169.19956556 Ry
     Harris-Foulkes estimate   =   -5169.19954865 Ry
     estimated scf accuracy    <       0.00004441 Ry

     iteration # 24     ecut=    45.00 Ry     beta= 0.30
     Davidson diagonalization with overlap
     ethr =  3.02E-08,  avg # of iterations =  3.0

     negative rho (up, down):  2.896E-02 0.000E+00

     total cpu time spent up to now is     2014.3 secs

     total energy              =   -5169.19956966 Ry
     Harris-Foulkes estimate   =   -5169.19956703 Ry
     estimated scf accuracy    <       0.00003041 Ry

     iteration # 25     ecut=    45.00 Ry     beta= 0.30
     Davidson diagonalization with overlap
     ethr =  2.07E-08,  avg # of iterations =  8.0

     negative rho (up, down):  2.630E-02 0.000E+00

     total cpu time spent up to now is     2094.8 secs

     total energy              =   -5169.19958620 Ry
     Harris-Foulkes estimate   =   -5169.19957166 Ry
     estimated scf accuracy    <       0.00001575 Ry

     iteration # 26     ecut=    45.00 Ry     beta= 0.30
     Davidson diagonalization with overlap
     ethr =  1.07E-08,  avg # of iterations =  1.0

     negative rho (up, down):  1.852E-02 0.000E+00

     total cpu time spent up to now is     2169.2 secs

     total energy              =   -5169.19961071 Ry
     Harris-Foulkes estimate   =   -5169.19958641 Ry
     estimated scf accuracy    <       0.00001057 Ry

     iteration # 27     ecut=    45.00 Ry     beta= 0.30
     Davidson diagonalization with overlap
     ethr =  7.19E-09,  avg # of iterations =  3.0

     negative rho (up, down):  1.444E-02 0.000E+00

     total cpu time spent up to now is     2245.9 secs

     total energy              =   -5169.19961233 Ry
     Harris-Foulkes estimate   =   -5169.19961143 Ry
     estimated scf accuracy    <       0.00000538 Ry

     iteration # 28     ecut=    45.00 Ry     beta= 0.30
     Davidson diagonalization with overlap
     ethr =  3.66E-09,  avg # of iterations =  2.0

     negative rho (up, down):  9.683E-03 0.000E+00

     total cpu time spent up to now is     2321.9 secs

     total energy              =   -5169.19961024 Ry
     Harris-Foulkes estimate   =   -5169.19961255 Ry
     estimated scf accuracy    <       0.00000405 Ry

     iteration # 29     ecut=    45.00 Ry     beta= 0.30
     Davidson diagonalization with overlap
     ethr =  2.76E-09,  avg # of iterations =  3.0

     negative rho (up, down):  8.948E-03 0.000E+00

     total cpu time spent up to now is     2397.1 secs

     total energy              =   -5169.19960926 Ry
     Harris-Foulkes estimate   =   -5169.19961034 Ry
     estimated scf accuracy    <       0.00000203 Ry

     iteration # 30     ecut=    45.00 Ry     beta= 0.30
     Davidson diagonalization with overlap
     ethr =  1.38E-09,  avg # of iterations =  4.0

     negative rho (up, down):  6.249E-03 0.000E+00

     total cpu time spent up to now is     2473.5 secs

     total energy              =   -5169.19960906 Ry
     Harris-Foulkes estimate   =   -5169.19960934 Ry
     estimated scf accuracy    <       0.00000114 Ry

     iteration # 31     ecut=    45.00 Ry     beta= 0.30
     Davidson diagonalization with overlap
     ethr =  7.76E-10,  avg # of iterations =  2.0

     negative rho (up, down):  5.180E-03 0.000E+00

     total cpu time spent up to now is     2548.5 secs

     total energy              =   -5169.19960857 Ry
     Harris-Foulkes estimate   =   -5169.19960914 Ry
     estimated scf accuracy    <       0.00000076 Ry

     iteration # 32     ecut=    45.00 Ry     beta= 0.30
     Davidson diagonalization with overlap
     ethr =  5.17E-10,  avg # of iterations =  3.0

     negative rho (up, down):  4.197E-03 0.000E+00

     total cpu time spent up to now is     2624.5 secs

     total energy              =   -5169.19960860 Ry
     Harris-Foulkes estimate   =   -5169.19960865 Ry
     estimated scf accuracy    <       0.00000040 Ry

     iteration # 33     ecut=    45.00 Ry     beta= 0.30
     Davidson diagonalization with overlap
     ethr =  2.71E-10,  avg # of iterations =  1.0

     negative rho (up, down):  3.364E-03 0.000E+00

     total cpu time spent up to now is     2699.0 secs

     total energy              =   -5169.19960850 Ry
     Harris-Foulkes estimate   =   -5169.19960861 Ry
     estimated scf accuracy    <       0.00000027 Ry

     iteration # 34     ecut=    45.00 Ry     beta= 0.30
     Davidson diagonalization with overlap
     ethr =  1.80E-10,  avg # of iterations =  3.0

     negative rho (up, down):  2.391E-03 0.000E+00

     total cpu time spent up to now is     2775.4 secs

     total energy              =   -5169.19960853 Ry
     Harris-Foulkes estimate   =   -5169.19960852 Ry
     estimated scf accuracy    <       0.00000013 Ry

     iteration # 35     ecut=    45.00 Ry     beta= 0.30
     Davidson diagonalization with overlap
     ethr =  8.64E-11,  avg # of iterations =  4.0

     negative rho (up, down):  2.284E-03 0.000E+00

     total cpu time spent up to now is     2852.9 secs

     total energy              =   -5169.19960852 Ry
     Harris-Foulkes estimate   =   -5169.19960854 Ry
     estimated scf accuracy    <       0.00000005 Ry

     iteration # 36     ecut=    45.00 Ry     beta= 0.30
     Davidson diagonalization with overlap
     ethr =  3.53E-11,  avg # of iterations =  2.0

     negative rho (up, down):  1.922E-03 0.000E+00

     total cpu time spent up to now is     2927.9 secs

     total energy              =   -5169.19960860 Ry
     Harris-Foulkes estimate   =   -5169.19960852 Ry
     estimated scf accuracy    <       0.00000003 Ry

     iteration # 37     ecut=    45.00 Ry     beta= 0.30
     Davidson diagonalization with overlap
     ethr =  1.90E-11,  avg # of iterations =  4.0

     negative rho (up, down):  1.893E-03 0.000E+00

     total cpu time spent up to now is     3005.5 secs

     total energy              =   -5169.19960861 Ry
     Harris-Foulkes estimate   =   -5169.19960860 Ry
     estimated scf accuracy    <       0.00000001 Ry

     iteration # 38     ecut=    45.00 Ry     beta= 0.30
     Davidson diagonalization with overlap
     ethr =  8.14E-12,  avg # of iterations =  1.0

     negative rho (up, down):  1.776E-03 0.000E+00

     total cpu time spent up to now is     3074.5 secs

     End of self-consistent calculation

          k = 0.0000 0.0000 0.0000 (232063 PWs)   bands (ev):

   -26.5042 -26.4728 -26.4727 -26.3794 -26.3793 -15.0490 -10.2853 -10.0296
   -10.0292  -9.9901  -9.9899  -9.8110  -8.9282  -8.9279  -8.7701  -8.7698
    -8.7672  -8.7362  -8.7355  -8.7082  -8.6313  -8.6311  -8.5727  -8.5726
    -8.4799  -8.4795  -8.3820  -8.3803  -8.2988  -8.2382  -8.2246  -8.2245
    -8.1850  -8.1848  -7.8780  -7.8761  -7.8678  -7.8231  -7.8204  -7.8202
    -7.8038  -7.8033  -7.6364  -7.6355  -7.5012  -7.3892  -7.3890  -7.2255
    -7.2253  -7.1993  -7.1989  -7.1874  -7.1756  -7.0992  -7.0987  -7.0934
    -7.0933  -7.0338  -7.0337  -6.9452  -6.9449  -6.9244  -6.9243  -6.8945
    -6.8249  -6.8247  -6.7812  -6.2653  -6.2648  -5.5455  -4.5820  -4.5814
    -3.7616  -3.7615  -3.6827  -2.6765  -2.3589  -2.3585  -2.1095  -1.6297
    -1.6297  -1.3827  -1.3824  -1.3412  -1.3410  -0.3083  -0.2518  -0.1455
    -0.1430

     occupation numbers 
     1.0000   1.0000   1.0000   1.0000   1.0000   1.0000   1.0000   1.0000
     1.0000   1.0000   1.0000   1.0000   1.0000   1.0000   1.0000   1.0000
     1.0000   1.0000   1.0000   1.0000   1.0000   1.0000   1.0000   1.0000
     1.0000   1.0000   1.0000   1.0000   1.0000   1.0000   1.0000   1.0000
     1.0000   1.0000   1.0000   1.0000   1.0000   1.0000   1.0000   1.0000
     1.0000   1.0000   1.0000   1.0000   1.0000   1.0000   1.0000   1.0000
     1.0000   1.0000   1.0000   1.0000   1.0000   1.0000   1.0000   1.0000
     1.0000   1.0000   1.0000   1.0000   1.0000   1.0000   1.0000   1.0000
     1.0000   1.0000   1.0000   1.0000   1.0000   1.0000   1.0017   1.0018
     0.5619   0.5617   0.3729   0.0000   0.0000   0.0000   0.0000   0.0000
     0.0000   0.0000   0.0000   0.0000   0.0000   0.0000   0.0000   0.0000
     0.0000

     the Fermi energy is    -3.6950 ev

!    total energy              =   -5169.19960864 Ry
     Harris-Foulkes estimate   =   -5169.19960861 Ry
     estimated scf accuracy    <          9.6E-09 Ry

     total all-electron energy =   -170648.250270 Ry

     The total energy is the sum of the following terms:

     one-electron contribution =   -5184.86698637 Ry
     hartree contribution      =    2683.68886953 Ry
     xc contribution           =    -460.19296481 Ry
     ewald contribution        =    1698.75654279 Ry
     one-center paw contrib.   =   -3906.56460014 Ry
      -> PAW hartree energy AE =      67.29517914 Ry
      -> PAW hartree energy PS =     -67.15102196 Ry
      -> PAW xc energy AE      =    -297.89402248 Ry
      -> PAW xc energy PS      =      35.25305832 Ry
      -> total E_H with PAW    =    2683.83302671 Ry
      -> total E_XC with PAW   =    -722.83392897 Ry
     smearing contrib. (-TS)   =      -0.02046963 Ry

     convergence has been achieved in  38 iterations

     negative rho (up, down):  1.776E-03 0.000E+00

     Forces acting on atoms (cartesian axes, Ry/au):

     atom    1 type  1   force =    -0.01501380   -0.01483724    0.00999157
     atom    2 type  1   force =    -0.02365383    0.00317403    0.02063596
     atom    3 type  1   force =     0.02713091   -0.01513344   -0.00474408
     atom    4 type  1   force =     0.00295920   -0.02233254    0.02174150
     atom    5 type  1   force =     0.01160933   -0.00670509   -0.01897257
     atom    6 type  1   force =     0.01581787    0.01532546   -0.02261383
     atom    7 type  1   force =    -0.00564509   -0.00616371   -0.00691965
     atom    8 type  1   force =    -0.02629546   -0.02840998   -0.03197408
     atom    9 type  1   force =    -0.01545595    0.02659941   -0.00681229
     atom   10 type  2   force =     0.05089059    0.05470674    0.06191075
     atom   11 type  1   force =    -0.02253291    0.00562429   -0.00179747
     atom   12 type  1   force =    -0.00607111    0.01059437   -0.01978233
     atom   13 type  1   force =     0.00626026   -0.02244230   -0.00066348
     The non-local contrib.  to forces
     atom    1 type  1   force =    -0.09804730   -0.09742642    0.06106119
     atom    2 type  1   force =    -0.07177887    0.04613261    0.12532121
     atom    3 type  1   force =     0.14727148   -0.03291854    0.01563364
     atom    4 type  1   force =     0.04234102   -0.06460931    0.13053932
     atom    5 type  1   force =     0.07213575   -0.04568514   -0.12474398
     atom    6 type  1   force =     0.09832016    0.09810311   -0.06076048
     atom    7 type  1   force =    -0.11532513   -0.12451359   -0.14030100
     atom    8 type  1   force =     0.00446888    0.00484159    0.00550365
     atom    9 type  1   force =    -0.03686319    0.14691480    0.00720016
     atom   10 type  2   force =    -0.18247290   -0.19678847   -0.22194672
     atom   11 type  1   force =    -0.14669238    0.03335241   -0.01477011
     atom   12 type  1   force =    -0.04148342    0.06537396   -0.12976507
     atom   13 type  1   force =     0.03734979   -0.14626573   -0.00692552
     The ionic contribution  to forces
     atom    1 type  1   force =   -30.56198321  -30.45117472   18.41788012
     atom    2 type  1   force =   -24.74663861   13.15434417   38.45916954
     atom    3 type  1   force =    45.82971778  -12.34164710    3.02490165
     atom    4 type  1   force =    11.95675986  -22.68469103   40.07736296
     atom    5 type  1   force =    21.86762588  -14.47339301  -38.87777125
     atom    6 type  1   force =    30.14414325   29.88896898  -21.52827353
     atom    7 type  1   force =   -24.49256218  -26.43665348  -29.77978594
     atom    8 type  1   force =    -1.73274628   -1.87193915   -2.11608940
     atom    9 type  1   force =   -13.51542289   45.59898749    0.38543740
     atom   10 type  2   force =    32.83486151   35.43386682   39.92172428
     atom   11 type  1   force =   -45.53864919    9.87284998   -5.03915126
     atom   12 type  1   force =   -13.17949385   19.76936094  -40.42441388
     atom   13 type  1   force =    11.13438793  -45.45887987   -2.52099068
     The local contribution  to forces
     atom    1 type  1   force =    30.63265726   30.52144929  -18.46189238
     atom    2 type  1   force =    24.77970438  -13.19268787  -38.54627939
     atom    3 type  1   force =   -45.92798004   12.35070880   -3.04624304
     atom    4 type  1   force =   -11.99198633   22.71287788  -40.16773789
     atom    5 type  1   force =   -21.91967229   14.50637371   38.96782292
     atom    6 type  1   force =   -30.21299623  -29.95838759   21.55259359
     atom    7 type  1   force =    24.59150697   26.54344433   29.90011453
     atom    8 type  1   force =     1.70023201    1.83679809    2.07650942
     atom    9 type  1   force =    13.52767198  -45.69769364   -0.40180953
     atom   10 type  2   force =   -32.60209785  -35.18301810  -39.63858896
     atom   11 type  1   force =    45.64451379   -9.89688383    5.04985702
     atom   12 type  1   force =    13.20945456  -19.81651445   40.51806634
     atom   13 type  1   force =   -11.16127384   45.56435179    2.52595692
     The core correction contribution to forces
     atom    1 type  1   force =     0.01236267    0.01233123   -0.00707970
     atom    2 type  1   force =     0.01508301   -0.00461274   -0.01761056
     atom    3 type  1   force =    -0.02192558    0.00874620    0.00096542
     atom    4 type  1   force =    -0.00417060    0.01412529   -0.01845898
     atom    5 type  1   force =    -0.00850565    0.00600225    0.01571913
     atom    6 type  1   force =    -0.01368092   -0.01337106    0.01384773
     atom    7 type  1   force =     0.01076263    0.01160456    0.01309523
     atom    8 type  1   force =     0.00175288    0.00190136    0.00211292
     atom    9 type  1   force =     0.00916632   -0.02163845    0.00236273
     atom   10 type  2   force =     0.00060108    0.00065790    0.00073005
     atom   11 type  1   force =     0.01830616   -0.00370087    0.00225515
     atom   12 type  1   force =     0.00544267   -0.00763822    0.01633813
     atom   13 type  1   force =    -0.00422375    0.01837205    0.00128321
     The Hubbard contrib.    to forces
     atom    1 type  1   force =     0.00000000    0.00000000    0.00000000
     atom    2 type  1   force =     0.00000000    0.00000000    0.00000000
     atom    3 type  1   force =     0.00000000    0.00000000    0.00000000
     atom    4 type  1   force =     0.00000000    0.00000000    0.00000000
     atom    5 type  1   force =     0.00000000    0.00000000    0.00000000
     atom    6 type  1   force =     0.00000000    0.00000000    0.00000000
     atom    7 type  1   force =     0.00000000    0.00000000    0.00000000
     atom    8 type  1   force =     0.00000000    0.00000000    0.00000000
     atom    9 type  1   force =     0.00000000    0.00000000    0.00000000
     atom   10 type  2   force =     0.00000000    0.00000000    0.00000000
     atom   11 type  1   force =     0.00000000    0.00000000    0.00000000
     atom   12 type  1   force =     0.00000000    0.00000000    0.00000000
     atom   13 type  1   force =     0.00000000    0.00000000    0.00000000
     The SCF correction term to forces
     atom    1 type  1   force =    -0.00000556   -0.00000206    0.00002588
     atom    2 type  1   force =    -0.00002609    0.00001242    0.00003871
     atom    3 type  1   force =     0.00004493   -0.00000824    0.00000180
     atom    4 type  1   force =     0.00001290   -0.00002082    0.00003963
     atom    5 type  1   force =     0.00002329    0.00001165    0.00000414
     atom    6 type  1   force =     0.00002926    0.00002658   -0.00001760
     atom    7 type  1   force =    -0.00002974   -0.00003097   -0.00003893
     atom    8 type  1   force =    -0.00000529    0.00000270   -0.00000713
     atom    9 type  1   force =    -0.00001051    0.00004377    0.00000049
     atom   10 type  2   force =    -0.00000359    0.00000316   -0.00000435
     atom   11 type  1   force =    -0.00001363    0.00002117    0.00001528
     atom   12 type  1   force =     0.00000659    0.00002671   -0.00000429
     atom   13 type  1   force =     0.00001780   -0.00000597    0.00001613

     Total force =     0.140421     Total SCF correction =     0.000133

     BFGS Geometry Optimization

     number of scf cycles    =   1
     number of bfgs steps    =   0

     energy   new            =   -5169.1996086395 Ry

     new trust radius        =       0.0970341216 bohr
     new conv_thr            =       0.0000000100 Ry


ATOMIC_POSITIONS (bohr)
Ag            4.5369135090        4.4373627847        8.4756916157
Ag            5.4116192754        9.3275762494       10.6525220608
Ag           12.8995374133        6.6253124031        6.8917990196
Ag            9.3005928738        5.5260699979       10.8248928756
Ag           10.3447212504        6.2091488589        2.1255677511
Ag           11.2326700835       11.1027754011        4.2905865310
Ag            5.1845798013        4.8570372014        3.1067825695
Ag            7.8573237261        7.7415281571        6.3559624257
Ag            6.6018930527       12.7728610895        6.6136488273
Bi           10.6270221000       10.7321956785        9.7244363900
Ag            2.8720377143        8.9048179734        5.8769905616
Ag            6.4623018830       10.0013591196        1.9537438053
Ag            9.1545473133        2.7709151315        6.1576156117



     Writing output data file ./tmp/ag12Bil.save/
     NEW-OLD atomic charge density approx. for the potential

     Check: negative core charge=   -0.000001

     negative rho (up, down):  1.754E-03 0.000E+00

     total cpu time spent up to now is     3141.5 secs

     Self-consistent Calculation

     iteration #  1     ecut=    45.00 Ry     beta= 0.30
     Davidson diagonalization with overlap
     ethr =  1.00E-06,  avg # of iterations =  6.0

     negative rho (up, down):  1.713E-03 0.000E+00

     total cpu time spent up to now is     3245.9 secs

     total energy              =   -5169.22133336 Ry
     Harris-Foulkes estimate   =   -5169.34717197 Ry
     estimated scf accuracy    <       0.00140698 Ry

     iteration #  2     ecut=    45.00 Ry     beta= 0.30
     Davidson diagonalization with overlap
     ethr =  9.57E-07,  avg # of iterations =  3.0

     negative rho (up, down):  1.757E-03 0.000E+00

     total cpu time spent up to now is     3323.8 secs

     total energy              =   -5169.21677886 Ry
     Harris-Foulkes estimate   =   -5169.22166191 Ry
     estimated scf accuracy    <       0.00036978 Ry

     iteration #  3     ecut=    45.00 Ry     beta= 0.30
     Davidson diagonalization with overlap
     ethr =  2.52E-07,  avg # of iterations =  3.0

     negative rho (up, down):  1.698E-03 0.000E+00

     total cpu time spent up to now is     3402.9 secs

     total energy              =   -5169.21639020 Ry
     Harris-Foulkes estimate   =   -5169.21709235 Ry
     estimated scf accuracy    <       0.00013136 Ry

     iteration #  4     ecut=    45.00 Ry     beta= 0.30
     Davidson diagonalization with overlap
     ethr =  8.94E-08,  avg # of iterations =  2.0

     negative rho (up, down):  1.820E-03 0.000E+00

     total cpu time spent up to now is     3478.8 secs

     total energy              =   -5169.21601773 Ry
     Harris-Foulkes estimate   =   -5169.21640385 Ry
     estimated scf accuracy    <       0.00004684 Ry

     iteration #  5     ecut=    45.00 Ry     beta= 0.30
     Davidson diagonalization with overlap
     ethr =  3.19E-08,  avg # of iterations =  3.0

     negative rho (up, down):  1.541E-03 0.000E+00

     total cpu time spent up to now is     3560.0 secs

     total energy              =   -5169.21604516 Ry
     Harris-Foulkes estimate   =   -5169.21604647 Ry
     estimated scf accuracy    <       0.00000922 Ry

     iteration #  6     ecut=    45.00 Ry     beta= 0.30
     Davidson diagonalization with overlap
     ethr =  6.27E-09,  avg # of iterations =  2.0

     negative rho (up, down):  1.368E-03 0.000E+00

     total cpu time spent up to now is     3636.1 secs

     total energy              =   -5169.21604644 Ry
     Harris-Foulkes estimate   =   -5169.21604586 Ry
     estimated scf accuracy    <       0.00000482 Ry

     iteration #  7     ecut=    45.00 Ry     beta= 0.30
     Davidson diagonalization with overlap
     ethr =  3.28E-09,  avg # of iterations =  4.0

     negative rho (up, down):  1.300E-03 0.000E+00

     total cpu time spent up to now is     3715.5 secs

     total energy              =   -5169.21604899 Ry
     Harris-Foulkes estimate   =   -5169.21604768 Ry
     estimated scf accuracy    <       0.00000205 Ry

     iteration #  8     ecut=    45.00 Ry     beta= 0.30
     Davidson diagonalization with overlap
     ethr =  1.40E-09,  avg # of iterations =  2.0

     negative rho (up, down):  1.182E-03 0.000E+00

     total cpu time spent up to now is     3790.9 secs

     total energy              =   -5169.21604596 Ry
     Harris-Foulkes estimate   =   -5169.21604909 Ry
     estimated scf accuracy    <       0.00000173 Ry

     iteration #  9     ecut=    45.00 Ry     beta= 0.30
     Davidson diagonalization with overlap
     ethr =  1.18E-09,  avg # of iterations =  3.0

     negative rho (up, down):  1.148E-03 0.000E+00

     total cpu time spent up to now is     3869.6 secs

     total energy              =   -5169.21604622 Ry
     Harris-Foulkes estimate   =   -5169.21604651 Ry
     estimated scf accuracy    <       0.00000122 Ry

     iteration # 10     ecut=    45.00 Ry     beta= 0.30
     Davidson diagonalization with overlap
     ethr =  8.29E-10,  avg # of iterations =  3.0

     negative rho (up, down):  1.142E-03 0.000E+00

     total cpu time spent up to now is     3945.0 secs

     total energy              =   -5169.21604531 Ry
     Harris-Foulkes estimate   =   -5169.21604625 Ry
     estimated scf accuracy    <       0.00000084 Ry

     iteration # 11     ecut=    45.00 Ry     beta= 0.30
     Davidson diagonalization with overlap
     ethr =  5.68E-10,  avg # of iterations =  3.0

     negative rho (up, down):  1.147E-03 0.000E+00

     total cpu time spent up to now is     4022.6 secs

     total energy              =   -5169.21604532 Ry
     Harris-Foulkes estimate   =   -5169.21604540 Ry
     estimated scf accuracy    <       0.00000042 Ry

     iteration # 12     ecut=    45.00 Ry     beta= 0.30
     Davidson diagonalization with overlap
     ethr =  2.84E-10,  avg # of iterations =  3.0

     negative rho (up, down):  1.217E-03 0.000E+00

     total cpu time spent up to now is     4098.8 secs

     total energy              =   -5169.21604495 Ry
     Harris-Foulkes estimate   =   -5169.21604534 Ry
     estimated scf accuracy    <       0.00000030 Ry

     iteration # 13     ecut=    45.00 Ry     beta= 0.30
     Davidson diagonalization with overlap
     ethr =  2.02E-10,  avg # of iterations =  3.0

     negative rho (up, down):  1.427E-03 0.000E+00

     total cpu time spent up to now is     4176.2 secs

     total energy              =   -5169.21604482 Ry
     Harris-Foulkes estimate   =   -5169.21604498 Ry
     estimated scf accuracy    <       0.00000021 Ry

     iteration # 14     ecut=    45.00 Ry     beta= 0.30
     Davidson diagonalization with overlap
     ethr =  1.45E-10,  avg # of iterations =  3.0

     negative rho (up, down):  1.646E-03 0.000E+00

     total cpu time spent up to now is     4252.8 secs

     total energy              =   -5169.21604454 Ry
     Harris-Foulkes estimate   =   -5169.21604483 Ry
     estimated scf accuracy    <       0.00000013 Ry

     iteration # 15     ecut=    45.00 Ry     beta= 0.30
     Davidson diagonalization with overlap
     ethr =  9.17E-11,  avg # of iterations =  2.0

     negative rho (up, down):  1.797E-03 0.000E+00

     total cpu time spent up to now is     4328.6 secs

     total energy              =   -5169.21604432 Ry
     Harris-Foulkes estimate   =   -5169.21604454 Ry
     estimated scf accuracy    <       0.00000011 Ry

     iteration # 16     ecut=    45.00 Ry     beta= 0.30
     Davidson diagonalization with overlap
     ethr =  7.30E-11,  avg # of iterations =  3.0

     negative rho (up, down):  1.897E-03 0.000E+00

     total cpu time spent up to now is     4405.4 secs

     total energy              =   -5169.21604424 Ry
     Harris-Foulkes estimate   =   -5169.21604433 Ry
     estimated scf accuracy    <       0.00000007 Ry

     iteration # 17     ecut=    45.00 Ry     beta= 0.30
     Davidson diagonalization with overlap
     ethr =  4.56E-11,  avg # of iterations =  2.0

     negative rho (up, down):  1.936E-03 0.000E+00

     total cpu time spent up to now is     4480.8 secs

     total energy              =   -5169.21604413 Ry
     Harris-Foulkes estimate   =   -5169.21604424 Ry
     estimated scf accuracy    <       0.00000005 Ry

     iteration # 18     ecut=    45.00 Ry     beta= 0.30
     Davidson diagonalization with overlap
     ethr =  3.44E-11,  avg # of iterations =  2.0

     negative rho (up, down):  1.923E-03 0.000E+00

     total cpu time spent up to now is     4556.3 secs

     total energy              =   -5169.21604408 Ry
     Harris-Foulkes estimate   =   -5169.21604414 Ry
     estimated scf accuracy    <       0.00000004 Ry

     iteration # 19     ecut=    45.00 Ry     beta= 0.30
     Davidson diagonalization with overlap
     ethr =  2.70E-11,  avg # of iterations =  1.0

     negative rho (up, down):  1.891E-03 0.000E+00

     total cpu time spent up to now is     4630.6 secs

     total energy              =   -5169.21604398 Ry
     Harris-Foulkes estimate   =   -5169.21604408 Ry
     estimated scf accuracy    <       0.00000003 Ry

     iteration # 20     ecut=    45.00 Ry     beta= 0.30
     Davidson diagonalization with overlap
     ethr =  2.21E-11,  avg # of iterations =  3.0

     negative rho (up, down):  1.892E-03 0.000E+00

     total cpu time spent up to now is     4706.7 secs

     total energy              =   -5169.21604395 Ry
     Harris-Foulkes estimate   =   -5169.21604398 Ry
     estimated scf accuracy    <       0.00000002 Ry

     iteration # 21     ecut=    45.00 Ry     beta= 0.30
     Davidson diagonalization with overlap
     ethr =  1.10E-11,  avg # of iterations =  2.0

     negative rho (up, down):  1.852E-03 0.000E+00

     total cpu time spent up to now is     4781.6 secs

     total energy              =   -5169.21604394 Ry
     Harris-Foulkes estimate   =   -5169.21604395 Ry
     estimated scf accuracy    <       0.00000001 Ry

     iteration # 22     ecut=    45.00 Ry     beta= 0.30
     Davidson diagonalization with overlap
     ethr =  8.79E-12,  avg # of iterations =  2.0

     negative rho (up, down):  1.776E-03 0.000E+00

     total cpu time spent up to now is     4851.8 secs

     End of self-consistent calculation

          k = 0.0000 0.0000 0.0000 (232063 PWs)   bands (ev):

   -26.4555 -26.4284 -26.4283 -26.3370 -26.3370 -14.8626 -10.1885  -9.9035
    -9.9032  -9.8806  -9.8805  -9.7461  -8.8550  -8.8547  -8.7049  -8.7047
    -8.6903  -8.6477  -8.6472  -8.6409  -8.5871  -8.5869  -8.5103  -8.5101
    -8.4149  -8.4147  -8.3037  -8.3023  -8.2745  -8.2080  -8.1701  -8.1699
    -8.1464  -8.1462  -7.8335  -7.8269  -7.8253  -7.7997  -7.7995  -7.7906
    -7.7732  -7.7724  -7.5774  -7.5768  -7.4863  -7.3640  -7.3637  -7.2056
    -7.2054  -7.1884  -7.1880  -7.1419  -7.1336  -7.0777  -7.0773  -7.0747
    -7.0746  -7.0213  -7.0212  -6.9200  -6.9197  -6.9081  -6.9080  -6.8932
    -6.8188  -6.8187  -6.7721  -6.2406  -6.2402  -5.5545  -4.5803  -4.5798
    -3.7538  -3.7537  -3.6789  -2.6934  -2.3787  -2.3783  -2.1209  -1.6428
    -1.6428  -1.3734  -1.3731  -1.3397  -1.3396  -0.3490  -0.2519  -0.1573
    -0.1552

     occupation numbers 
     1.0000   1.0000   1.0000   1.0000   1.0000   1.0000   1.0000   1.0000
     1.0000   1.0000   1.0000   1.0000   1.0000   1.0000   1.0000   1.0000
     1.0000   1.0000   1.0000   1.0000   1.0000   1.0000   1.0000   1.0000
     1.0000   1.0000   1.0000   1.0000   1.0000   1.0000   1.0000   1.0000
     1.0000   1.0000   1.0000   1.0000   1.0000   1.0000   1.0000   1.0000
     1.0000   1.0000   1.0000   1.0000   1.0000   1.0000   1.0000   1.0000
     1.0000   1.0000   1.0000   1.0000   1.0000   1.0000   1.0000   1.0000
     1.0000   1.0000   1.0000   1.0000   1.0000   1.0000   1.0000   1.0000
     1.0000   1.0000   1.0000   1.0000   1.0000   1.0000   1.0016   1.0016
     0.5588   0.5587   0.3792   0.0000   0.0000   0.0000   0.0000   0.0000
     0.0000   0.0000   0.0000   0.0000   0.0000   0.0000   0.0000   0.0000
     0.0000

     the Fermi energy is    -3.6884 ev

!    total energy              =   -5169.21604382 Ry
     Harris-Foulkes estimate   =   -5169.21604394 Ry
     estimated scf accuracy    <          9.2E-09 Ry

     total all-electron energy =   -170648.266705 Ry

     The total energy is the sum of the following terms:

     one-electron contribution =   -5147.18084291 Ry
     hartree contribution      =    2665.01559499 Ry
     xc contribution           =    -460.10968258 Ry
     ewald contribution        =    1679.62959308 Ry
     one-center paw contrib.   =   -3906.55013561 Ry
      -> PAW hartree energy AE =      67.24094182 Ry
      -> PAW hartree energy PS =     -67.09630068 Ry
      -> PAW xc energy AE      =    -297.89010550 Ry
      -> PAW xc energy PS      =      35.24906529 Ry
      -> total E_H with PAW    =    2665.16023613 Ry
      -> total E_XC with PAW   =    -722.75072279 Ry
     smearing contrib. (-TS)   =      -0.02057078 Ry

     convergence has been achieved in  22 iterations

     negative rho (up, down):  1.776E-03 0.000E+00

     Forces acting on atoms (cartesian axes, Ry/au):

     atom    1 type  1   force =    -0.01278407   -0.01261540    0.00929702
     atom    2 type  1   force =    -0.01526834    0.00237952    0.01388449
     atom    3 type  1   force =     0.01813068   -0.00965900   -0.00277173
     atom    4 type  1   force =     0.00223789   -0.01434850    0.01459511
     atom    5 type  1   force =     0.01062803   -0.00550403   -0.01621552
     atom    6 type  1   force =     0.01062340    0.01039380   -0.01452345
     atom    7 type  1   force =    -0.00605640   -0.00659360   -0.00739717
     atom    8 type  1   force =    -0.01335639   -0.01439504   -0.01620960
     atom    9 type  1   force =    -0.00987162    0.01778160   -0.00414998
     atom   10 type  2   force =     0.03417857    0.03674794    0.04159322
     atom   11 type  1   force =    -0.01942797    0.00539663   -0.00109186
     atom   12 type  1   force =    -0.00494881    0.00975659   -0.01690932
     atom   13 type  1   force =     0.00591504   -0.01934051   -0.00010122
     The non-local contrib.  to forces
     atom    1 type  1   force =    -0.10101665   -0.10053401    0.06024934
     atom    2 type  1   force =    -0.07621286    0.04573122    0.12744873
     atom    3 type  1   force =     0.15057376   -0.03610333    0.01384683
     atom    4 type  1   force =     0.04190139   -0.06895408    0.13281881
     atom    5 type  1   force =     0.07181578   -0.04797387   -0.12846136
     atom    6 type  1   force =     0.09992715    0.09952964   -0.06519186
     atom    7 type  1   force =    -0.11606752   -0.12530698   -0.14119529
     atom    8 type  1   force =     0.00188932    0.00205842    0.00236992
     atom    9 type  1   force =    -0.04003738    0.15006049    0.00518065
     atom   10 type  2   force =    -0.17721181   -0.19112793   -0.21554012
     atom   11 type  1   force =    -0.15043580    0.03229260   -0.01678191
     atom   12 type  1   force =    -0.04360285    0.06480938   -0.13355603
     atom   13 type  1   force =     0.03646024   -0.15011951   -0.00878590
     The ionic contribution  to forces
     atom    1 type  1   force =   -30.26976945  -30.15623440   18.34113157
     atom    2 type  1   force =   -24.20455794   13.02214079   37.88313083
     atom    3 type  1   force =    45.10057520  -12.01524371    3.08745758
     atom    4 type  1   force =    11.83808357  -22.17294379   39.47355560
     atom    5 type  1   force =    21.75301875  -14.30240969  -38.50964875
     atom    6 type  1   force =    29.69751678   29.45523312  -21.02263107
     atom    7 type  1   force =   -24.36550666  -26.29931791  -29.62490806
     atom    8 type  1   force =    -1.41210775   -1.52457889   -1.72511524
     atom    9 type  1   force =   -13.17475089   44.88084244    0.49655740
     atom   10 type  2   force =    32.08847028   34.62925512   39.01355987
     atom   11 type  1   force =   -45.12983603    9.85529617   -4.93394243
     atom   12 type  1   force =   -13.02347644   19.67460887  -40.04406191
     atom   13 type  1   force =    11.10234056  -45.04664812   -2.43508538
     The local contribution  to forces
     atom    1 type  1   force =    30.34586817   30.23207470  -18.38517777
     atom    2 type  1   force =    24.25160085  -13.06102305  -37.98011159
     atom    3 type  1   force =   -45.21248058   12.03372238   -3.10478878
     atom    4 type  1   force =   -11.87371267   22.21455323  -39.57436822
     atom    5 type  1   force =   -21.80588571   14.33903503   38.60647554
     atom    6 type  1   force =   -29.77390978  -29.53175982   21.06058711
     atom    7 type  1   force =    24.46474693   26.40642921   29.74559541
     atom    8 type  1   force =     1.39692463    1.50819090    1.70662859
     atom    9 type  1   force =    13.19653713  -44.99280916   -0.50789450
     atom   10 type  2   force =   -31.87844899  -34.40285385  -38.75809648
     atom   11 type  1   force =    45.24290629   -9.87857658    4.94741246
     atom   12 type  1   force =    13.05678807  -19.72217743   40.14467919
     atom   13 type  1   force =   -11.12876562   45.15944502    2.44251444
     The core correction contribution to forces
     atom    1 type  1   force =     0.01213337    0.01208637   -0.00693349
     atom    2 type  1   force =     0.01390914   -0.00447123   -0.01661102
     atom    3 type  1   force =    -0.02055991    0.00797491    0.00070151
     atom    4 type  1   force =    -0.00404366    0.01301018   -0.01743690
     atom    5 type  1   force =    -0.00834056    0.00584522    0.01541320
     atom    6 type  1   force =    -0.01292767   -0.01261846    0.01271255
     atom    7 type  1   force =     0.01078440    0.01162459    0.01312141
     atom    8 type  1   force =    -0.00008339   -0.00007875   -0.00012221
     atom    9 type  1   force =     0.00838158   -0.02032823    0.00199838
     atom   10 type  2   force =     0.00135747    0.00147061    0.00164972
     atom   11 type  1   force =     0.01794363   -0.00362401    0.00220296
     atom   12 type  1   force =     0.00533561   -0.00749696    0.01602449
     atom   13 type  1   force =    -0.00413587    0.01799315    0.00123698
     The Hubbard contrib.    to forces
     atom    1 type  1   force =     0.00000000    0.00000000    0.00000000
     atom    2 type  1   force =     0.00000000    0.00000000    0.00000000
     atom    3 type  1   force =     0.00000000    0.00000000    0.00000000
     atom    4 type  1   force =     0.00000000    0.00000000    0.00000000
     atom    5 type  1   force =     0.00000000    0.00000000    0.00000000
     atom    6 type  1   force =     0.00000000    0.00000000    0.00000000
     atom    7 type  1   force =     0.00000000    0.00000000    0.00000000
     atom    8 type  1   force =     0.00000000    0.00000000    0.00000000
     atom    9 type  1   force =     0.00000000    0.00000000    0.00000000
     atom   10 type  2   force =     0.00000000    0.00000000    0.00000000
     atom   11 type  1   force =     0.00000000    0.00000000    0.00000000
     atom   12 type  1   force =     0.00000000    0.00000000    0.00000000
     atom   13 type  1   force =     0.00000000    0.00000000    0.00000000
     The SCF correction term to forces
     atom    1 type  1   force =     0.00000083   -0.00000007    0.00002238
     atom    2 type  1   force =    -0.00000718    0.00000979    0.00002255
     atom    3 type  1   force =     0.00002255   -0.00000125    0.00000614
     atom    4 type  1   force =     0.00000959   -0.00000604    0.00002083
     atom    5 type  1   force =     0.00002010    0.00000728    0.00000083
     atom    6 type  1   force =     0.00001726    0.00001731   -0.00000518
     atom    7 type  1   force =    -0.00001321   -0.00001450   -0.00001564
     atom    8 type  1   force =     0.00002114    0.00002128    0.00002433
     atom    9 type  1   force =    -0.00000173    0.00002406    0.00000309
     atom   10 type  2   force =     0.00001195    0.00001200    0.00001523
     atom   11 type  1   force =    -0.00000573    0.00001646    0.00001205
     atom   12 type  1   force =     0.00000713    0.00002073   -0.00000006
     atom   13 type  1   force =     0.00001606   -0.00000305    0.00001364

     Total force =     0.096007     Total SCF correction =     0.000089

     number of scf cycles    =   2
     number of bfgs steps    =   1

     energy   old            =   -5169.1996086395 Ry
     energy   new            =   -5169.2160438192 Ry

     CASE: energy  _new < energy  _old

     new trust radius        =       0.1067375338 bohr
     new conv_thr            =       0.0000000042 Ry


ATOMIC_POSITIONS (bohr)
Ag            4.5161703385        4.4168922655        8.4907326170
Ag            5.3865725446        9.3314552880       10.6752570415
Ag           12.9292340230        6.6094593590        6.8872307329
Ag            9.3042398009        5.5025272589       10.8487938005
Ag           10.3619245139        6.2002066364        2.0992601554
Ag           11.2500665979       11.1197887555        4.2667563133
Ag            5.1748227258        4.8464138300        3.0948642805
Ag            7.8351464584        7.7176229817        6.3290447017
Ag            6.5856915367       12.8019854987        6.6068228080
Bi           10.6829917495       10.7923723806        9.7925470643
Ag            2.8405277834        8.9135404483        5.8751943808
Ag            6.4542596929       10.0171488044        1.9263107137
Ag            9.1641122305        2.7395465389        6.1574254355



     Writing output data file ./tmp/ag12Bil.save/
     NEW-OLD atomic charge density approx. for the potential

     Check: negative core charge=   -0.000001

     negative rho (up, down):  1.731E-03 0.000E+00

     total cpu time spent up to now is     4918.7 secs

     Self-consistent Calculation

     iteration #  1     ecut=    45.00 Ry     beta= 0.30
     Davidson diagonalization with overlap
     ethr =  1.00E-06,  avg # of iterations = 12.0

     negative rho (up, down):  1.697E-03 0.000E+00

     total cpu time spent up to now is     5029.1 secs

     total energy              =   -5169.23507551 Ry
     Harris-Foulkes estimate   =   -5169.38917014 Ry
     estimated scf accuracy    <       0.00208009 Ry

     iteration #  2     ecut=    45.00 Ry     beta= 0.30
     Davidson diagonalization with overlap
     ethr =  1.42E-06,  avg # of iterations =  6.0

     negative rho (up, down):  1.757E-03 0.000E+00

     total cpu time spent up to now is     5107.9 secs

     total energy              =   -5169.22897473 Ry
     Harris-Foulkes estimate   =   -5169.23555864 Ry
     estimated scf accuracy    <       0.00047370 Ry

     iteration #  3     ecut=    45.00 Ry     beta= 0.30
     Davidson diagonalization with overlap
     ethr =  3.22E-07,  avg # of iterations =  3.0

     negative rho (up, down):  1.779E-03 0.000E+00

     total cpu time spent up to now is     5187.1 secs

     total energy              =   -5169.22828986 Ry
     Harris-Foulkes estimate   =   -5169.22941208 Ry
     estimated scf accuracy    <       0.00015962 Ry

     iteration #  4     ecut=    45.00 Ry     beta= 0.30
     Davidson diagonalization with overlap
     ethr =  1.09E-07,  avg # of iterations =  3.0

     negative rho (up, down):  1.964E-03 0.000E+00

     total cpu time spent up to now is     5264.3 secs

     total energy              =   -5169.22790736 Ry
     Harris-Foulkes estimate   =   -5169.22831675 Ry
     estimated scf accuracy    <       0.00004182 Ry

     iteration #  5     ecut=    45.00 Ry     beta= 0.30
     Davidson diagonalization with overlap
     ethr =  2.85E-08,  avg # of iterations =  4.0

     negative rho (up, down):  1.534E-03 0.000E+00

     total cpu time spent up to now is     5347.3 secs

     total energy              =   -5169.22794172 Ry
     Harris-Foulkes estimate   =   -5169.22794619 Ry
     estimated scf accuracy    <       0.00001219 Ry

     iteration #  6     ecut=    45.00 Ry     beta= 0.30
     Davidson diagonalization with overlap
     ethr =  8.29E-09,  avg # of iterations =  2.0

     negative rho (up, down):  1.372E-03 0.000E+00

     total cpu time spent up to now is     5423.0 secs

     total energy              =   -5169.22794788 Ry
     Harris-Foulkes estimate   =   -5169.22794287 Ry
     estimated scf accuracy    <       0.00000439 Ry

     iteration #  7     ecut=    45.00 Ry     beta= 0.30
     Davidson diagonalization with overlap
     ethr =  2.99E-09,  avg # of iterations =  3.0

     negative rho (up, down):  1.270E-03 0.000E+00

     total cpu time spent up to now is     5501.2 secs

     total energy              =   -5169.22794782 Ry
     Harris-Foulkes estimate   =   -5169.22794899 Ry
     estimated scf accuracy    <       0.00000261 Ry

     iteration #  8     ecut=    45.00 Ry     beta= 0.30
     Davidson diagonalization with overlap
     ethr =  1.78E-09,  avg # of iterations =  3.0

     negative rho (up, down):  1.141E-03 0.000E+00

     total cpu time spent up to now is     5577.2 secs

     total energy              =   -5169.22794300 Ry
     Harris-Foulkes estimate   =   -5169.22794793 Ry
     estimated scf accuracy    <       0.00000195 Ry

     iteration #  9     ecut=    45.00 Ry     beta= 0.30
     Davidson diagonalization with overlap
     ethr =  1.33E-09,  avg # of iterations =  3.0

     negative rho (up, down):  1.094E-03 0.000E+00

     total cpu time spent up to now is     5655.9 secs

     total energy              =   -5169.22794366 Ry
     Harris-Foulkes estimate   =   -5169.22794376 Ry
     estimated scf accuracy    <       0.00000132 Ry

     iteration # 10     ecut=    45.00 Ry     beta= 0.30
     Davidson diagonalization with overlap
     ethr =  9.00E-10,  avg # of iterations =  2.0

     negative rho (up, down):  1.092E-03 0.000E+00

     total cpu time spent up to now is     5731.7 secs

     total energy              =   -5169.22794254 Ry
     Harris-Foulkes estimate   =   -5169.22794371 Ry
     estimated scf accuracy    <       0.00000093 Ry

     iteration # 11     ecut=    45.00 Ry     beta= 0.30
     Davidson diagonalization with overlap
     ethr =  6.30E-10,  avg # of iterations =  3.0

     negative rho (up, down):  1.104E-03 0.000E+00

     total cpu time spent up to now is     5809.6 secs

     total energy              =   -5169.22794234 Ry
     Harris-Foulkes estimate   =   -5169.22794274 Ry
     estimated scf accuracy    <       0.00000055 Ry

     iteration # 12     ecut=    45.00 Ry     beta= 0.30
     Davidson diagonalization with overlap
     ethr =  3.75E-10,  avg # of iterations =  3.0

     negative rho (up, down):  1.156E-03 0.000E+00

     total cpu time spent up to now is     5886.3 secs

     total energy              =   -5169.22794215 Ry
     Harris-Foulkes estimate   =   -5169.22794238 Ry
     estimated scf accuracy    <       0.00000033 Ry

     iteration # 13     ecut=    45.00 Ry     beta= 0.30
     Davidson diagonalization with overlap
     ethr =  2.27E-10,  avg # of iterations =  3.0

     negative rho (up, down):  1.413E-03 0.000E+00

     total cpu time spent up to now is     5963.2 secs

     total energy              =   -5169.22794212 Ry
     Harris-Foulkes estimate   =   -5169.22794218 Ry
     estimated scf accuracy    <       0.00000025 Ry

     iteration # 14     ecut=    45.00 Ry     beta= 0.30
     Davidson diagonalization with overlap
     ethr =  1.68E-10,  avg # of iterations =  3.0

     negative rho (up, down):  1.642E-03 0.000E+00

     total cpu time spent up to now is     6040.2 secs

     total energy              =   -5169.22794152 Ry
     Harris-Foulkes estimate   =   -5169.22794214 Ry
     estimated scf accuracy    <       0.00000017 Ry

     iteration # 15     ecut=    45.00 Ry     beta= 0.30
     Davidson diagonalization with overlap
     ethr =  1.15E-10,  avg # of iterations =  3.0

     negative rho (up, down):  1.772E-03 0.000E+00

     total cpu time spent up to now is     6118.0 secs

     total energy              =   -5169.22794145 Ry
     Harris-Foulkes estimate   =   -5169.22794156 Ry
     estimated scf accuracy    <       0.00000011 Ry

     iteration # 16     ecut=    45.00 Ry     beta= 0.30
     Davidson diagonalization with overlap
     ethr =  7.57E-11,  avg # of iterations =  3.0

     negative rho (up, down):  1.922E-03 0.000E+00

     total cpu time spent up to now is     6195.2 secs

     total energy              =   -5169.22794130 Ry
     Harris-Foulkes estimate   =   -5169.22794146 Ry
     estimated scf accuracy    <       0.00000008 Ry

     iteration # 17     ecut=    45.00 Ry     beta= 0.30
     Davidson diagonalization with overlap
     ethr =  5.44E-11,  avg # of iterations =  3.0

     negative rho (up, down):  1.939E-03 0.000E+00

     total cpu time spent up to now is     6271.8 secs

     total energy              =   -5169.22794116 Ry
     Harris-Foulkes estimate   =   -5169.22794130 Ry
     estimated scf accuracy    <       0.00000005 Ry

     iteration # 18     ecut=    45.00 Ry     beta= 0.30
     Davidson diagonalization with overlap
     ethr =  3.72E-11,  avg # of iterations =  3.0

     negative rho (up, down):  1.944E-03 0.000E+00

     total cpu time spent up to now is     6349.3 secs

     total energy              =   -5169.22794109 Ry
     Harris-Foulkes estimate   =   -5169.22794117 Ry
     estimated scf accuracy    <       0.00000004 Ry

     iteration # 19     ecut=    45.00 Ry     beta= 0.30
     Davidson diagonalization with overlap
     ethr =  2.80E-11,  avg # of iterations =  1.0

     negative rho (up, down):  1.921E-03 0.000E+00

     total cpu time spent up to now is     6423.6 secs

     total energy              =   -5169.22794101 Ry
     Harris-Foulkes estimate   =   -5169.22794109 Ry
     estimated scf accuracy    <       0.00000003 Ry

     iteration # 20     ecut=    45.00 Ry     beta= 0.30
     Davidson diagonalization with overlap
     ethr =  1.91E-11,  avg # of iterations =  2.0

     negative rho (up, down):  1.883E-03 0.000E+00

     total cpu time spent up to now is     6499.6 secs

     total energy              =   -5169.22794099 Ry
     Harris-Foulkes estimate   =   -5169.22794101 Ry
     estimated scf accuracy    <       0.00000002 Ry

     iteration # 21     ecut=    45.00 Ry     beta= 0.30
     Davidson diagonalization with overlap
     ethr =  1.31E-11,  avg # of iterations =  3.0

     negative rho (up, down):  1.823E-03 0.000E+00

     total cpu time spent up to now is     6575.9 secs

     total energy              =   -5169.22794093 Ry
     Harris-Foulkes estimate   =   -5169.22794099 Ry
     estimated scf accuracy    <       0.00000001 Ry

     iteration # 22     ecut=    45.00 Ry     beta= 0.30
     Davidson diagonalization with overlap
     ethr =  9.92E-12,  avg # of iterations =  3.0

     negative rho (up, down):  1.813E-03 0.000E+00

     total cpu time spent up to now is     6653.9 secs

     total energy              =   -5169.22794089 Ry
     Harris-Foulkes estimate   =   -5169.22794093 Ry
     estimated scf accuracy    <          9.0E-09 Ry

     iteration # 23     ecut=    45.00 Ry     beta= 0.30
     Davidson diagonalization with overlap
     ethr =  6.09E-12,  avg # of iterations =  2.0

     negative rho (up, down):  1.818E-03 0.000E+00

     total cpu time spent up to now is     6729.3 secs

     total energy              =   -5169.22794085 Ry
     Harris-Foulkes estimate   =   -5169.22794089 Ry
     estimated scf accuracy    <          5.6E-09 Ry

     iteration # 24     ecut=    45.00 Ry     beta= 0.30
     Davidson diagonalization with overlap
     ethr =  3.80E-12,  avg # of iterations =  3.0

     negative rho (up, down):  1.775E-03 0.000E+00

     total cpu time spent up to now is     6803.3 secs

     End of self-consistent calculation

          k = 0.0000 0.0000 0.0000 (232063 PWs)   bands (ev):

   -26.4139 -26.3892 -26.3891 -26.2993 -26.2992 -14.6858 -10.0799  -9.7761
    -9.7759  -9.7633  -9.7633  -9.6608  -8.7717  -8.7715  -8.6316  -8.6315
    -8.6051  -8.5674  -8.5520  -8.5517  -8.5337  -8.5335  -8.4351  -8.4348
    -8.3407  -8.3405  -8.2368  -8.2225  -8.2213  -8.1670  -8.1114  -8.1112
    -8.0979  -8.0977  -7.7934  -7.7741  -7.7730  -7.7716  -7.7716  -7.7549
    -7.7325  -7.7315  -7.5180  -7.5176  -7.4680  -7.3328  -7.3326  -7.1833
    -7.1831  -7.1769  -7.1766  -7.1095  -7.0827  -7.0540  -7.0540  -7.0532
    -7.0529  -7.0066  -7.0065  -6.8970  -6.8967  -6.8946  -6.8945  -6.8906
    -6.8124  -6.8123  -6.7626  -6.2133  -6.2130  -5.5592  -4.5750  -4.5744
    -3.7464  -3.7463  -3.6755  -2.7113  -2.4010  -2.4006  -2.1354  -1.6612
    -1.6612  -1.3652  -1.3651  -1.3384  -1.3382  -0.3944  -0.2529  -0.1740
    -0.1722

     occupation numbers 
     1.0000   1.0000   1.0000   1.0000   1.0000   1.0000   1.0000   1.0000
     1.0000   1.0000   1.0000   1.0000   1.0000   1.0000   1.0000   1.0000
     1.0000   1.0000   1.0000   1.0000   1.0000   1.0000   1.0000   1.0000
     1.0000   1.0000   1.0000   1.0000   1.0000   1.0000   1.0000   1.0000
     1.0000   1.0000   1.0000   1.0000   1.0000   1.0000   1.0000   1.0000
     1.0000   1.0000   1.0000   1.0000   1.0000   1.0000   1.0000   1.0000
     1.0000   1.0000   1.0000   1.0000   1.0000   1.0000   1.0000   1.0000
     1.0000   1.0000   1.0000   1.0000   1.0000   1.0000   1.0000   1.0000
     1.0000   1.0000   1.0000   1.0000   1.0000   1.0000   1.0016   1.0016
     0.5557   0.5557   0.3853   0.0000   0.0000   0.0000   0.0000   0.0000
     0.0000   0.0000   0.0000   0.0000   0.0000   0.0000   0.0000   0.0000
     0.0000

     the Fermi energy is    -3.6823 ev

!    total energy              =   -5169.22794084 Ry
     Harris-Foulkes estimate   =   -5169.22794085 Ry
     estimated scf accuracy    <          3.9E-09 Ry

     total all-electron energy =   -170648.278602 Ry

     The total energy is the sum of the following terms:

     one-electron contribution =   -5102.82931315 Ry
     hartree contribution      =    2643.01929483 Ry
     xc contribution           =    -460.01765684 Ry
     ewald contribution        =    1657.15510840 Ry
     one-center paw contrib.   =   -3906.53473280 Ry
      -> PAW hartree energy AE =      67.16227261 Ry
      -> PAW hartree energy PS =     -67.01696211 Ry
      -> PAW xc energy AE      =    -297.88431822 Ry
      -> PAW xc energy PS      =      35.24319146 Ry
      -> total E_H with PAW    =    2643.16460533 Ry
      -> total E_XC with PAW   =    -722.65878360 Ry
     smearing contrib. (-TS)   =      -0.02064127 Ry

     convergence has been achieved in  24 iterations

     negative rho (up, down):  1.775E-03 0.000E+00

     Forces acting on atoms (cartesian axes, Ry/au):

     atom    1 type  1   force =    -0.00954214   -0.00940474    0.00761468
     atom    2 type  1   force =    -0.00768267    0.00146949    0.00745140
     atom    3 type  1   force =     0.00958524   -0.00474699   -0.00112643
     atom    4 type  1   force =     0.00141129   -0.00713486    0.00783597
     atom    5 type  1   force =     0.00858518   -0.00385911   -0.01215752
     atom    6 type  1   force =     0.00567422    0.00560745   -0.00725164
     atom    7 type  1   force =    -0.00544500   -0.00590011   -0.00664027
     atom    8 type  1   force =    -0.00419179   -0.00449758   -0.00505394
     atom    9 type  1   force =    -0.00484803    0.00943701   -0.00186056
     atom   10 type  2   force =     0.01970338    0.02119252    0.02399192
     atom   11 type  1   force =    -0.01467703    0.00454774   -0.00043646
     atom   12 type  1   force =    -0.00350206    0.00793812   -0.01271359
     atom   13 type  1   force =     0.00492942   -0.01464895    0.00034644
     The non-local contrib.  to forces
     atom    1 type  1   force =    -0.10411473   -0.10378300    0.05935259
     atom    2 type  1   force =    -0.08035805    0.04539454    0.12950503
     atom    3 type  1   force =     0.15373237   -0.03906242    0.01219483
     atom    4 type  1   force =     0.04151627   -0.07302844    0.13501378
     atom    5 type  1   force =     0.07143798   -0.05037056   -0.13233932
     atom    6 type  1   force =     0.10148371    0.10090533   -0.06931848
     atom    7 type  1   force =    -0.11663420   -0.12590519   -0.14186631
     atom    8 type  1   force =     0.00031344    0.00035265    0.00044959
     atom    9 type  1   force =    -0.04299130    0.15306977    0.00332613
     atom   10 type  2   force =    -0.17106087   -0.18451433   -0.20805049
     atom   11 type  1   force =    -0.15433655    0.03114737   -0.01891229
     atom   12 type  1   force =    -0.04583537    0.06417530   -0.13751840
     atom   13 type  1   force =     0.03549282   -0.15413592   -0.01075358
     The ionic contribution  to forces
     atom    1 type  1   force =   -29.89329128  -29.77885425   18.18874946
     atom    2 type  1   force =   -23.64170048   12.86257265   37.24683918
     atom    3 type  1   force =    44.30354197  -11.68396545    3.13376225
     atom    4 type  1   force =    11.69450153  -21.64371508   38.80700812
     atom    5 type  1   force =    21.55468751  -14.09996884  -38.03332947
     atom    6 type  1   force =    29.20304904   28.97312496  -20.50243578
     atom    7 type  1   force =   -24.15035869  -26.06680868  -29.36262091
     atom    8 type  1   force =    -1.14750195   -1.23823391   -1.40251777
     atom    9 type  1   force =   -12.82727828   44.09482284    0.59496399
     atom   10 type  2   force =    31.31150483   33.79137928   38.06795849
     atom   11 type  1   force =   -44.58876643    9.79128888   -4.82938525
     atom   12 type  1   force =   -12.83920846   19.50144776  -39.55110754
     atom   13 type  1   force =    11.02082067  -44.50309017   -2.35788477
     The local contribution  to forces
     atom    1 type  1   force =    29.97614258   29.86157241  -18.23386695
     atom    2 type  1   force =    23.70164819  -12.90217803  -37.35332067
     atom    3 type  1   force =   -44.42846544   11.71105894   -3.14756631
     atom    4 type  1   force =   -11.73070158   21.69771048  -38.91785729
     atom    5 type  1   force =   -21.60955874   14.14079016   38.13864839
     atom    6 type  1   force =   -29.28671109  -29.05652849   20.55292113
     atom    7 type  1   force =    24.25093225   26.17535528   29.48492253
     atom    8 type  1   force =     1.14440655    1.23490190    1.39872803
     atom    9 type  1   force =    12.85779826  -44.21943781   -0.60183267
     atom   10 type  2   force =   -31.12273870  -33.58783904  -37.83836618
     atom   11 type  1   force =    44.71109526   -9.81442966    4.84569993
     atom   12 type  1   force =    12.87637747  -19.55051858   39.66047289
     atom   13 type  1   force =   -11.04744766   44.62526797    2.36773738
     The core correction contribution to forces
     atom    1 type  1   force =     0.01173061    0.01166205   -0.00664300
     atom    2 type  1   force =     0.01275319   -0.00432148   -0.01559761
     atom    3 type  1   force =    -0.01923670    0.00723517    0.00047512
     atom    4 type  1   force =    -0.00389999    0.01191630   -0.01635523
     atom    5 type  1   force =    -0.00798494    0.00568942    0.01485554
     atom    6 type  1   force =    -0.01215270   -0.01190483    0.01158846
     atom    7 type  1   force =     0.01062147    0.01145763    0.01291176
     atom    8 type  1   force =    -0.00139235   -0.00150738   -0.00171348
     atom    9 type  1   force =     0.00764340   -0.01903603    0.00167593
     atom   10 type  2   force =     0.00200093    0.00216252    0.00243264
     atom   11 type  1   force =     0.01734324   -0.00346716    0.00214463
     atom   12 type  1   force =     0.00516972   -0.00717632    0.01543186
     atom   13 type  1   force =    -0.00393839    0.01731505    0.00122996
     The Hubbard contrib.    to forces
     atom    1 type  1   force =     0.00000000    0.00000000    0.00000000
     atom    2 type  1   force =     0.00000000    0.00000000    0.00000000
     atom    3 type  1   force =     0.00000000    0.00000000    0.00000000
     atom    4 type  1   force =     0.00000000    0.00000000    0.00000000
     atom    5 type  1   force =     0.00000000    0.00000000    0.00000000
     atom    6 type  1   force =     0.00000000    0.00000000    0.00000000
     atom    7 type  1   force =     0.00000000    0.00000000    0.00000000
     atom    8 type  1   force =     0.00000000    0.00000000    0.00000000
     atom    9 type  1   force =     0.00000000    0.00000000    0.00000000
     atom   10 type  2   force =     0.00000000    0.00000000    0.00000000
     atom   11 type  1   force =     0.00000000    0.00000000    0.00000000
     atom   12 type  1   force =     0.00000000    0.00000000    0.00000000
     atom   13 type  1   force =     0.00000000    0.00000000    0.00000000
     The SCF correction term to forces
     atom    1 type  1   force =    -0.00000444   -0.00000370    0.00000907
     atom    2 type  1   force =    -0.00002065    0.00000007    0.00001197
     atom    3 type  1   force =     0.00001790   -0.00001496   -0.00000582
     atom    4 type  1   force =    -0.00000007   -0.00001986    0.00001308
     atom    5 type  1   force =     0.00000825   -0.00000104   -0.00000616
     atom    6 type  1   force =     0.00001013    0.00000875   -0.00002047
     atom    7 type  1   force =    -0.00000095   -0.00000088   -0.00000083
     atom    8 type  1   force =    -0.00001261   -0.00001258   -0.00001381
     atom    9 type  1   force =    -0.00001524    0.00001650   -0.00000745
     atom   10 type  2   force =     0.00000205    0.00000236    0.00000395
     atom   11 type  1   force =    -0.00000768    0.00000657    0.00000301
     atom   12 type  1   force =    -0.00000055    0.00000823   -0.00000590
     atom   13 type  1   force =     0.00000685   -0.00000763    0.00000394

     Total force =     0.057878     Total SCF correction =     0.000063

     number of scf cycles    =   3
     number of bfgs steps    =   2

     energy   old            =   -5169.2160438192 Ry
     energy   new            =   -5169.2279408350 Ry

     CASE: energy  _new < energy  _old

     new trust radius        =       0.1568780731 bohr
     new conv_thr            =       0.0000000024 Ry


ATOMIC_POSITIONS (bohr)
Ag            4.4806348543        4.3818508549        8.5181007660
Ag            5.3524400390        9.3373716042       10.7073159851
Ag           12.9707678967        6.5881204495        6.8816298489
Ag            9.3098719169        5.4706446687       10.8825077269
Ag           10.3929435017        6.1854831184        2.0540637111
Ag           11.2745335769       11.1438435816        4.2344112566
Ag            5.1559253225        4.8259058065        3.0718048825
Ag            7.8107247485        7.6913423115        6.2994792168
Ag            6.5638926809       12.8428070100        6.5980505294
Bi           10.7652367736       10.8808182929        9.8926660257
Ag            2.7861327062        8.9297151524        5.8730149958
Ag            6.4409373731       10.0457548338        1.8790932733
Ag            9.1817186057        2.6853023617        6.1581018267



     Writing output data file ./tmp/ag12Bil.save/
     NEW-OLD atomic charge density approx. for the potential

     Check: negative core charge=   -0.000001

     negative rho (up, down):  1.611E-03 0.000E+00

     total cpu time spent up to now is     6870.3 secs

     Self-consistent Calculation

     iteration #  1     ecut=    45.00 Ry     beta= 0.30
     Davidson diagonalization with overlap
     ethr =  1.00E-06,  avg # of iterations = 10.0

     negative rho (up, down):  1.607E-03 0.000E+00

     total cpu time spent up to now is     6983.0 secs

     total energy              =   -5169.26116603 Ry
[...]
     Davidson diagonalization with overlap
     ethr =  2.65E-10,  avg # of iterations =  4.0

     negative rho (up, down):  1.767E-03 0.000E+00

     total cpu time spent up to now is    23852.8 secs

     total energy              =   -5169.23738340 Ry
     Harris-Foulkes estimate   =   -5169.23738340 Ry
     estimated scf accuracy    <       0.00000003 Ry

     iteration #  4     ecut=    45.00 Ry     beta= 0.30
     Davidson diagonalization with overlap
     ethr =  2.32E-11,  avg # of iterations =  2.0

     negative rho (up, down):  1.760E-03 0.000E+00

     total cpu time spent up to now is    23931.3 secs

     total energy              =   -5169.23738341 Ry
     Harris-Foulkes estimate   =   -5169.23738340 Ry
     estimated scf accuracy    <       0.00000002 Ry

     iteration #  5     ecut=    45.00 Ry     beta= 0.30
     Davidson diagonalization with overlap
     ethr =  1.20E-11,  avg # of iterations =  3.0

     negative rho (up, down):  1.757E-03 0.000E+00

     total cpu time spent up to now is    24010.9 secs

     total energy              =   -5169.23738342 Ry
     Harris-Foulkes estimate   =   -5169.23738341 Ry
     estimated scf accuracy    <          5.4E-09 Ry

     iteration #  6     ecut=    45.00 Ry     beta= 0.30
     Davidson diagonalization with overlap
     ethr =  3.64E-12,  avg # of iterations =  1.0

     negative rho (up, down):  1.749E-03 0.000E+00

     total cpu time spent up to now is    24085.3 secs

     total energy              =   -5169.23738343 Ry
     Harris-Foulkes estimate   =   -5169.23738342 Ry
     estimated scf accuracy    <          3.8E-09 Ry

     iteration #  7     ecut=    45.00 Ry     beta= 0.30
     Davidson diagonalization with overlap
     ethr =  2.59E-12,  avg # of iterations =  3.0

     negative rho (up, down):  1.747E-03 0.000E+00

     total cpu time spent up to now is    24162.7 secs

     total energy              =   -5169.23738343 Ry
     Harris-Foulkes estimate   =   -5169.23738343 Ry
     estimated scf accuracy    <          2.0E-09 Ry

     iteration #  8     ecut=    45.00 Ry     beta= 0.30
     Davidson diagonalization with overlap
     ethr =  1.38E-12,  avg # of iterations =  2.0

     negative rho (up, down):  1.735E-03 0.000E+00

     total cpu time spent up to now is    24238.4 secs

     total energy              =   -5169.23738343 Ry
     Harris-Foulkes estimate   =   -5169.23738343 Ry
     estimated scf accuracy    <          1.6E-09 Ry

     iteration #  9     ecut=    45.00 Ry     beta= 0.30
     Davidson diagonalization with overlap
     ethr =  1.09E-12,  avg # of iterations =  3.0

     negative rho (up, down):  1.733E-03 0.000E+00

     total cpu time spent up to now is    24314.5 secs

     total energy              =   -5169.23738343 Ry
     Harris-Foulkes estimate   =   -5169.23738343 Ry
     estimated scf accuracy    <          7.8E-10 Ry

     iteration # 10     ecut=    45.00 Ry     beta= 0.30
     Davidson diagonalization with overlap
     ethr =  5.31E-13,  avg # of iterations =  2.0

     negative rho (up, down):  1.733E-03 0.000E+00

     total cpu time spent up to now is    24389.2 secs

     total energy              =   -5169.23738342 Ry
     Harris-Foulkes estimate   =   -5169.23738343 Ry
     estimated scf accuracy    <          6.0E-10 Ry

     iteration # 11     ecut=    45.00 Ry     beta= 0.30
     Davidson diagonalization with overlap
     ethr =  4.10E-13,  avg # of iterations =  3.0

     negative rho (up, down):  1.737E-03 0.000E+00

     total cpu time spent up to now is    24465.4 secs

     total energy              =   -5169.23738342 Ry
     Harris-Foulkes estimate   =   -5169.23738342 Ry
     estimated scf accuracy    <          3.7E-10 Ry

     iteration # 12     ecut=    45.00 Ry     beta= 0.30
     Davidson diagonalization with overlap
     ethr =  2.55E-13,  avg # of iterations =  2.0

     negative rho (up, down):  1.745E-03 0.000E+00

     total cpu time spent up to now is    24539.6 secs

     total energy              =   -5169.23738341 Ry
     Harris-Foulkes estimate   =   -5169.23738342 Ry
     estimated scf accuracy    <          2.9E-10 Ry

     iteration # 13     ecut=    45.00 Ry     beta= 0.30
     Davidson diagonalization with overlap
     ethr =  1.98E-13,  avg # of iterations =  4.0

     negative rho (up, down):  1.747E-03 0.000E+00

     total cpu time spent up to now is    24615.9 secs

     total energy              =   -5169.23738340 Ry
     Harris-Foulkes estimate   =   -5169.23738341 Ry
     estimated scf accuracy    <          1.8E-10 Ry

     iteration # 14     ecut=    45.00 Ry     beta= 0.30
     Davidson diagonalization with overlap
     ethr =  1.21E-13,  avg # of iterations =  1.0

     negative rho (up, down):  1.757E-03 0.000E+00

     total cpu time spent up to now is    24689.4 secs

     total energy              =   -5169.23738340 Ry
     Harris-Foulkes estimate   =   -5169.23738340 Ry
     estimated scf accuracy    <          1.5E-10 Ry

     iteration # 15     ecut=    45.00 Ry     beta= 0.30
     Davidson diagonalization with overlap
     ethr =  1.01E-13,  avg # of iterations =  4.0

     negative rho (up, down):  1.772E-03 0.000E+00

     total cpu time spent up to now is    24760.5 secs

     End of self-consistent calculation

          k = 0.0000 0.0000 0.0000 (232063 PWs)   bands (ev):

   -26.3583 -26.3365 -26.3364 -26.2470 -26.2470 -14.4295  -9.8534  -9.5351
    -9.5350  -9.5222  -9.5220  -9.4410  -8.6149  -8.6147  -8.4950  -8.4948
    -8.4590  -8.4437  -8.3756  -8.3755  -8.3692  -8.3691  -8.2955  -8.2954
    -8.2312  -8.2309  -8.1234  -8.1198  -8.1196  -8.0521  -8.0025  -8.0024
    -7.9574  -7.9570  -7.7017  -7.6843  -7.6840  -7.6818  -7.6739  -7.6735
    -7.6380  -7.6376  -7.4541  -7.4207  -7.4207  -7.2684  -7.2684  -7.1515
    -7.1513  -7.1319  -7.1319  -7.0490  -7.0156  -7.0156  -7.0123  -7.0119
    -6.9954  -6.9792  -6.9791  -6.8879  -6.8878  -6.8861  -6.8595  -6.8593
    -6.8061  -6.8060  -6.7482  -6.1557  -6.1556  -5.5538  -4.5653  -4.5651
    -3.7316  -3.7314  -3.6677  -2.7442  -2.4365  -2.4362  -2.1741  -1.7067
    -1.7065  -1.3525  -1.3524  -1.3331  -1.3329  -0.4988  -0.2563  -0.2082
    -0.2075

     occupation numbers 
     1.0000   1.0000   1.0000   1.0000   1.0000   1.0000   1.0000   1.0000
     1.0000   1.0000   1.0000   1.0000   1.0000   1.0000   1.0000   1.0000
     1.0000   1.0000   1.0000   1.0000   1.0000   1.0000   1.0000   1.0000
     1.0000   1.0000   1.0000   1.0000   1.0000   1.0000   1.0000   1.0000
     1.0000   1.0000   1.0000   1.0000   1.0000   1.0000   1.0000   1.0000
     1.0000   1.0000   1.0000   1.0000   1.0000   1.0000   1.0000   1.0000
     1.0000   1.0000   1.0000   1.0000   1.0000   1.0000   1.0000   1.0000
     1.0000   1.0000   1.0000   1.0000   1.0000   1.0000   1.0000   1.0000
     1.0000   1.0000   1.0000   1.0000   1.0000   1.0000   1.0015   1.0015
     0.5506   0.5501   0.3963   0.0000   0.0000   0.0000   0.0000   0.0000
     0.0000   0.0000   0.0000   0.0000   0.0000   0.0000   0.0000   0.0000
     0.0000

     the Fermi energy is    -3.6696 ev

!    total energy              =   -5169.23738338 Ry
     Harris-Foulkes estimate   =   -5169.23738340 Ry
     estimated scf accuracy    <          9.1E-11 Ry

     total all-electron energy =   -170648.288045 Ry

     The total energy is the sum of the following terms:

     one-electron contribution =   -5009.57420963 Ry
     hartree contribution      =    2596.73634636 Ry
     xc contribution           =    -459.84166473 Ry
     ewald contribution        =    1609.96945203 Ry
     one-center paw contrib.   =   -3906.50653996 Ry
      -> PAW hartree energy AE =      66.91513065 Ry
      -> PAW hartree energy PS =     -66.76763322 Ry
      -> PAW xc energy AE      =    -297.86667283 Ry
      -> PAW xc energy PS      =      35.22520156 Ry
      -> total E_H with PAW    =    2596.88384379 Ry
      -> total E_XC with PAW   =    -722.48313600 Ry
     smearing contrib. (-TS)   =      -0.02076745 Ry

     convergence has been achieved in  15 iterations

     negative rho (up, down):  1.772E-03 0.000E+00

     Forces acting on atoms (cartesian axes, Ry/au):

     atom    1 type  1   force =     0.00017879    0.00016752    0.00004818
     atom    2 type  1   force =     0.00023586    0.00006865   -0.00003666
     atom    3 type  1   force =    -0.00009839    0.00018687    0.00012928
     atom    4 type  1   force =     0.00007307    0.00026019   -0.00004693
     atom    5 type  1   force =     0.00000841    0.00012178    0.00020289
     atom    6 type  1   force =    -0.00001743   -0.00001499    0.00023446
     atom    7 type  1   force =    -0.00073833   -0.00078926   -0.00089010
     atom    8 type  1   force =     0.00008434    0.00009023    0.00009166
     atom    9 type  1   force =     0.00019996   -0.00008612    0.00015562
     atom   10 type  2   force =    -0.00026243   -0.00029195   -0.00032471
     atom   11 type  1   force =     0.00021575    0.00004008    0.00011814
     atom   12 type  1   force =     0.00009068    0.00002869    0.00022314
     atom   13 type  1   force =     0.00002973    0.00021830    0.00009502
     The non-local contrib.  to forces
     atom    1 type  1   force =    -0.11159093   -0.11173055    0.05557292
     atom    2 type  1   force =    -0.08766775    0.04379324    0.13157939
     atom    3 type  1   force =     0.15761702   -0.04468832    0.00841102
     atom    4 type  1   force =     0.03975394   -0.08049361    0.13723663
     atom    5 type  1   force =     0.06886923   -0.05671053   -0.14165750
     atom    6 type  1   force =     0.10302653    0.10197780   -0.07679494
     atom    7 type  1   force =    -0.11636145   -0.12556842   -0.14144682
     atom    8 type  1   force =    -0.00062321   -0.00068665   -0.00079958
     atom    9 type  1   force =    -0.04858502    0.15663410   -0.00058489
     atom   10 type  2   force =    -0.16087001   -0.17362315   -0.19557209
     atom   11 type  1   force =    -0.16330677    0.02712864   -0.02511341
     atom   12 type  1   force =    -0.05178705    0.06094421   -0.14703253
     atom   13 type  1   force =     0.03190877   -0.16349816   -0.01657068
     The ionic contribution  to forces
     atom    1 type  1   force =   -28.93384935  -28.82947186   17.65316216
     atom    2 type  1   force =   -22.74509141   12.53872151   36.10896605
     atom    3 type  1   force =    42.90810748  -11.18153175    3.14557929
     atom    4 type  1   force =    11.40147691  -20.80575355   37.61875494
     atom    5 type  1   force =    20.90696565  -13.63661934  -36.81829525
     atom    6 type  1   force =    28.31859434   28.10267760  -19.69125904
     atom    7 type  1   force =   -23.41989598  -25.27486199  -28.47252956
     atom    8 type  1   force =    -1.28570829   -1.38681328   -1.55993351
     atom    9 type  1   force =   -12.28930143   42.71533649    0.69871233
     atom   10 type  2   force =    30.03765370   32.41672571   36.51326001
     atom   11 type  1   force =   -43.17240099    9.51013587   -4.64996481
     atom   12 type  1   force =   -12.42325307   18.91748257  -38.28852942
     atom   13 type  1   force =    10.69670243  -43.08602799   -2.25792318
     The local contribution  to forces
     atom    1 type  1   force =    29.03531539   28.93108650  -17.70331797
     atom    2 type  1   force =    22.82152355  -12.57850946  -36.22643751
     atom    3 type  1   force =   -43.04835674   11.21991645   -3.15425339
     atom    4 type  1   force =   -11.43760939   20.87575899  -37.74120619
     atom    5 type  1   force =   -20.96923256   13.68833011   36.94714368
     atom    6 type  1   force =   -28.41060164  -28.19383827   19.75786371
     atom    7 type  1   force =    23.52596415   25.38932584   28.60147188
     atom    8 type  1   force =     1.28851866    1.38984390    1.56335479
     atom    9 type  1   force =    12.33120344  -42.85478095   -0.69943062
     atom   10 type  2   force =   -29.87994590  -32.24651407  -36.32153391
     atom   11 type  1   force =    43.32087452   -9.53450356    4.67304851
     atom   12 type  1   force =    12.47045735  -18.97255968   38.42222703
     atom   13 type  1   force =   -10.72543610   43.23468143    2.27324352
     The core correction contribution to forces
     atom    1 type  1   force =     0.01030035    0.01029000   -0.00536917
     atom    2 type  1   force =     0.01146666   -0.00393202   -0.01414653
     atom    3 type  1   force =    -0.01747132    0.00649553    0.00039081
     atom    4 type  1   force =    -0.00355321    0.01075338   -0.01483433
     atom    5 type  1   force =    -0.00659761    0.00512798    0.01301227
     atom    6 type  1   force =    -0.01104160   -0.01082768    0.01042323
     atom    7 type  1   force =     0.00954980    0.01031970    0.01161232
     atom    8 type  1   force =    -0.00210712   -0.00224839   -0.00253098
     atom    9 type  1   force =     0.00687835   -0.01727154    0.00145726
     atom   10 type  2   force =     0.00289385    0.00312299    0.00351811
     atom   11 type  1   force =     0.01504581   -0.00271492    0.00214796
     atom   12 type  1   force =     0.00467010   -0.00583253    0.01355843
     atom   13 type  1   force =    -0.00314913    0.01506950    0.00134534
     The Hubbard contrib.    to forces
     atom    1 type  1   force =     0.00000000    0.00000000    0.00000000
     atom    2 type  1   force =     0.00000000    0.00000000    0.00000000
     atom    3 type  1   force =     0.00000000    0.00000000    0.00000000
     atom    4 type  1   force =     0.00000000    0.00000000    0.00000000
     atom    5 type  1   force =     0.00000000    0.00000000    0.00000000
     atom    6 type  1   force =     0.00000000    0.00000000    0.00000000
     atom    7 type  1   force =     0.00000000    0.00000000    0.00000000
     atom    8 type  1   force =     0.00000000    0.00000000    0.00000000
     atom    9 type  1   force =     0.00000000    0.00000000    0.00000000
     atom   10 type  2   force =     0.00000000    0.00000000    0.00000000
     atom   11 type  1   force =     0.00000000    0.00000000    0.00000000
     atom   12 type  1   force =     0.00000000    0.00000000    0.00000000
     atom   13 type  1   force =     0.00000000    0.00000000    0.00000000
     The SCF correction term to forces
     atom    1 type  1   force =    -0.00000164   -0.00000197   -0.00000153
     atom    2 type  1   force =    -0.00000017   -0.00000003    0.00000018
     atom    3 type  1   force =     0.00000021   -0.00000043   -0.00000023
     atom    4 type  1   force =    -0.00000015   -0.00000042    0.00000026
     atom    5 type  1   force =    -0.00000126   -0.00000185   -0.00000207
     atom    6 type  1   force =    -0.00000002    0.00000015   -0.00000026
     atom    7 type  1   force =     0.00000018    0.00000020    0.00000031
     atom    8 type  1   force =    -0.00000066   -0.00000075   -0.00000082
     atom    9 type  1   force =    -0.00000035    0.00000038   -0.00000023
     atom   10 type  2   force =     0.00000097    0.00000115    0.00000142
     atom   11 type  1   force =    -0.00000180   -0.00000136   -0.00000186
     atom   12 type  1   force =    -0.00000162   -0.00000129   -0.00000212
     atom   13 type  1   force =    -0.00000121   -0.00000189   -0.00000174

     Total force =     0.001693     Total SCF correction =     0.000007

     bfgs converged in  14 scf cycles and  13 bfgs steps
     (criteria: energy <  1.0E-04 Ry, force <  1.0E-03 Ry/Bohr)

     End of BFGS Geometry Optimization

     Final energy   =   -5169.2373833771 Ry
Begin final coordinates

ATOMIC_POSITIONS (bohr)
Ag            4.4464913393        4.3484877493        8.5611103244
Ag            5.3824813288        9.3397712053       10.6909562317
Ag           12.9459865862        6.6095578214        6.8932663014
Ag            9.3132021816        5.5011771168       10.8651506839
Ag           10.4383280817        6.1763041519        2.0093808458
Ag           11.2612241324       11.1323762376        4.2643642766
Ag            5.1404952336        4.8092764563        3.0525096607
Ag            7.7944678853        7.6739312536        6.2805557323
Ag            6.5864529136       12.8195222157        6.6110616031
Bi           10.8050073082       10.9230514326        9.9408893708
Ag            2.7280868878        8.9579319000        5.8803915936
Ag            6.4326182564       10.0894244957        1.8322444064
Ag            9.2109178612        2.6281480099        6.1683590145
End final coordinates



     Writing output data file ./tmp/ag12Bil.save/
 
     init_run     :     58.61s CPU     61.72s WALL (       1 calls)
     electrons    :  22452.47s CPU  23837.54s WALL (      14 calls)
     update_pot   :    160.14s CPU    164.31s WALL (      13 calls)
     forces       :    449.48s CPU    483.63s WALL (      14 calls)

     Called by init_run:
     wfcinit      :     10.56s CPU     10.74s WALL (       1 calls)
     wfcinit:atom :      0.07s CPU      0.09s WALL (       1 calls)
     wfcinit:wfcr :     10.35s CPU     10.44s WALL (       1 calls)
     potinit      :      8.54s CPU      9.23s WALL (       1 calls)
     hinit0       :      5.96s CPU      6.17s WALL (       1 calls)

     Called by electrons:
     c_bands      :   6481.75s CPU   6511.35s WALL (     311 calls)
     sum_band     :   7993.28s CPU   8647.61s WALL (     311 calls)
     v_of_rho     :   1636.32s CPU   1761.10s WALL (     314 calls)
     v_h          :    198.88s CPU    199.73s WALL (     314 calls)
     v_xc         :   1502.19s CPU   1631.89s WALL (     328 calls)
     newd         :   4646.53s CPU   5203.74s WALL (     314 calls)
     PAW_pot      :    172.18s CPU    174.77s WALL (     327 calls)
     mix_rho      :   1554.32s CPU   1584.76s WALL (     311 calls)

     Called by c_bands:
     init_us_2    :     36.84s CPU     37.13s WALL (     636 calls)
     regterg      :   6300.25s CPU   6328.76s WALL (     311 calls)

     Called by sum_band:
     sum_band:bec :      0.18s CPU      0.19s WALL (     324 calls)
     addusdens    :   6418.21s CPU   7058.97s WALL (     311 calls)

     Called by *egterg:
     h_psi        :   5150.69s CPU   5169.91s WALL (    1251 calls)
     s_psi        :    298.34s CPU    298.94s WALL (    1251 calls)
     g_psi        :     11.77s CPU     11.82s WALL (     939 calls)
     rdiaghg      :     30.85s CPU     32.71s WALL (    1226 calls)
     regterg:over :    272.12s CPU    272.60s WALL (     939 calls)
     regterg:upda :    265.66s CPU    267.78s WALL (     939 calls)
     regterg:last :     94.31s CPU     94.50s WALL (     315 calls)
     rdiaghg:chol :      1.12s CPU      1.15s WALL (    1226 calls)
     rdiaghg:inve :      0.89s CPU      0.91s WALL (    1226 calls)
     rdiaghg:para :      2.70s CPU      2.73s WALL (    2452 calls)

     Called by h_psi:
     h_psi:calbec :    214.73s CPU    215.31s WALL (    1251 calls)
     vloc_psi     :   4603.37s CPU   4621.23s WALL (    1251 calls)
     add_vuspsi   :    308.93s CPU    309.61s WALL (    1251 calls)

     General routines
     calbec       :    310.91s CPU    311.80s WALL (    1631 calls)
     fft          :   1788.76s CPU   1855.55s WALL (    3576 calls)
     ffts         :    890.55s CPU    893.86s WALL (    7783 calls)
     fftw         :   3862.82s CPU   3879.10s WALL (   79317 calls)
     interpolate  :    215.96s CPU    222.01s WALL (     314 calls)
 
     Parallel routines
     fft_scatt_xy :   1006.68s CPU   1013.36s WALL (   90676 calls)
     fft_scatt_yz :   2105.94s CPU   2124.05s WALL (   90676 calls)

     PAW routines
     PAW_pot      :    172.18s CPU    174.77s WALL (     327 calls)
 
     PWSCF        :      6h29m CPU      6h53m WALL

 
   This run was terminated on:   8:56:27   3Jun2020            

=------------------------------------------------------------------------------=
   JOB DONE.
=------------------------------------------------------------------------------=
