
     Program PWSCF v.6.5 starts on  4Jun2020 at  3:26:17 

     This program is part of the open-source Quantum ESPRESSO suite
     for quantum simulation of materials; please cite
         "P. Giannozzi et al., J. Phys.:Condens. Matter 21 395502 (2009);
         "P. Giannozzi et al., J. Phys.:Condens. Matter 29 465901 (2017);
          URL http://www.quantum-espresso.org", 
     in publications or presentations arising from this work. More details at
     http://www.quantum-espresso.org/quote

     Parallel version (MPI & OpenMP), running on      24 processor cores
     Number of MPI processes:                24
     Threads/MPI process:                     1

     MPI processes distributed on     1 nodes
     R & G space division:  proc/nbgrp/npool/nimage =      24
     Waiting for input...
     Reading input from standard input

     Current dimensions of program PWSCF are:
     Max number of different atomic species (ntypx) = 10
     Max number of k-points (npk) =  40000
     Max angular momentum in pseudopotentials (lmaxx) =  3
               file Ag.pbe-dn-kjpaw_psl.0.1.UPF: wavefunction(s)  5S 5P 4D renormalized
               file Bi.pbe-dn-kjpaw_psl.1.0.0.UPF: wavefunction(s)  6P 5D renormalized

     gamma-point specific algorithms are used

     Subspace diagonalization in iterative solution of the eigenvalue problem:
     one sub-group per band group will be used
     scalapack distributed-memory algorithm (size of sub-group:  4*  4 procs)

 
     Parallelization info
     --------------------
     sticks:   dense  smooth     PW     G-vecs:    dense   smooth      PW
     Min         337     134     32                23024     5729     704
     Max         342     138     34                23030     5734     718
     Sum        8121    3233    797               552629   137545   17077
 


     bravais-lattice index     =            1
     lattice parameter (alat)  =      15.0000  a.u.
     unit-cell volume          =    3375.0000 (a.u.)^3
     number of atoms/cell      =           13
     number of atomic types    =            2
     number of electrons       =       147.00
     number of Kohn-Sham states=           89
     kinetic-energy cutoff     =      45.0000  Ry
     charge density cutoff     =     455.0000  Ry
     convergence threshold     =      1.0E-08
     mixing beta               =       0.7000
     number of iterations used =            8  local-TF  mixing
     Exchange-correlation= SLA PW PBX PBC
                           (   1   4   3   4   0   0   0)

     celldm(1)=  15.000000  celldm(2)=   0.000000  celldm(3)=   0.000000
     celldm(4)=   0.000000  celldm(5)=   0.000000  celldm(6)=   0.000000

     crystal axes: (cart. coord. in units of alat)
               a(1) = (   1.000000   0.000000   0.000000 )  
               a(2) = (   0.000000   1.000000   0.000000 )  
               a(3) = (   0.000000   0.000000   1.000000 )  

     reciprocal axes: (cart. coord. in units 2 pi/alat)
               b(1) = (  1.000000  0.000000  0.000000 )  
               b(2) = (  0.000000  1.000000  0.000000 )  
               b(3) = (  0.000000  0.000000  1.000000 )  


     PseudoPot. # 1 for Ag read from file:
     ../../pseudo/Ag.pbe-dn-kjpaw_psl.0.1.UPF
     MD5 check sum: 2edc915f30f03476250949c796a6a376
     Pseudo is Projector augmented-wave + core cor, Zval = 11.0
     Generated using "atomic" code by A. Dal Corso v.5.0.2 svn rev. 9415
     Shape of augmentation charge: PSQ
     Using radial grid of 1237 points,  6 beta functions with: 
                l(1) =   0
                l(2) =   0
                l(3) =   1
                l(4) =   1
                l(5) =   2
                l(6) =   2
     Q(r) pseudized with 0 coefficients 


     PseudoPot. # 2 for Bi read from file:
     ../../pseudo/Bi.pbe-dn-kjpaw_psl.1.0.0.UPF
     MD5 check sum: 266ded784ae3bc462508ed03f0f37963
     Pseudo is Projector augmented-wave + core cor, Zval = 15.0
     Generated using "atomic" code by A. Dal Corso v.6.2.2
     Shape of augmentation charge: PSQ
     Using radial grid of 1283 points,  6 beta functions with: 
                l(1) =   0
                l(2) =   0
                l(3) =   1
                l(4) =   1
                l(5) =   2
                l(6) =   2
     Q(r) pseudized with 0 coefficients 


     atomic species   valence    mass     pseudopotential
        Ag            11.00   107.87000     Ag( 1.00)
        Bi            15.00   208.98000     Bi( 1.00)

     Starting magnetic structure 
     atomic species   magnetization
        Ag           0.700
        Bi           0.000

     No symmetry found


                                    s                        frac. trans.

      isym =  1     identity                                     

 cryst.   s( 1) = (     1          0          0      )
                  (     0          1          0      )
                  (     0          0          1      )

 cart.    s( 1) = (  1.0000000  0.0000000  0.0000000 )
                  (  0.0000000  1.0000000  0.0000000 )
                  (  0.0000000  0.0000000  1.0000000 )


     point group C_1 (1)    
     there are  1 classes
     the character table:

       E    
A      1.00

     the symmetry operations in each class and the name of the first element:

     E        1
          identity                                               

   Cartesian axes

     site n.     atom                  positions (alat units)
         1           Ag  tau(   1) = (   0.2903511   0.2838023   0.5725124  )
         2           Ag  tau(   2) = (   0.3527231   0.6277286   0.7254578  )
         3           Ag  tau(   3) = (   0.8777309   0.4382547   0.4617959  )
         4           Ag  tau(   4) = (   0.6254265   0.3612184   0.7375259  )
         5           Ag  tau(   5) = (   0.6984617   0.4082798   0.1263189  )
         6           Ag  tau(   6) = (   0.7608473   0.7521940   0.2793751  )
         7           Ag  tau(   7) = (   0.3354570   0.3128013   0.1947464  )
         8           Bi  tau(   8) = (   0.5255710   0.5179972   0.4258621  )
         9           Ag  tau(   9) = (   0.4361981   0.8692877   0.4422521  )
        10           Ag  tau(  10) = (   0.7156536   0.7232117   0.6570276  )
        11           Ag  tau(  11) = (   0.1733965   0.5977019   0.3899476  )
        12           Ag  tau(  12) = (   0.4256901   0.6747789   0.1142478  )
        13           Ag  tau(  13) = (   0.6148773   0.1666743   0.4096130  )

   Crystallographic axes

     site n.     atom                  positions (cryst. coord.)
         1           Ag  tau(   1) = (  0.2903511  0.2838023  0.5725124  )
         2           Ag  tau(   2) = (  0.3527231  0.6277286  0.7254578  )
         3           Ag  tau(   3) = (  0.8777309  0.4382547  0.4617959  )
         4           Ag  tau(   4) = (  0.6254265  0.3612184  0.7375259  )
         5           Ag  tau(   5) = (  0.6984617  0.4082798  0.1263189  )
         6           Ag  tau(   6) = (  0.7608473  0.7521940  0.2793751  )
         7           Ag  tau(   7) = (  0.3354570  0.3128013  0.1947464  )
         8           Bi  tau(   8) = (  0.5255710  0.5179972  0.4258621  )
         9           Ag  tau(   9) = (  0.4361981  0.8692877  0.4422521  )
        10           Ag  tau(  10) = (  0.7156536  0.7232117  0.6570276  )
        11           Ag  tau(  11) = (  0.1733965  0.5977019  0.3899476  )
        12           Ag  tau(  12) = (  0.4256901  0.6747789  0.1142478  )
        13           Ag  tau(  13) = (  0.6148773  0.1666743  0.4096130  )

     number of k points=     1  Fermi-Dirac smearing, width (Ry)=  0.0007
                       cart. coord. in units 2pi/alat
        k(    1) = (   0.0000000   0.0000000   0.0000000), wk =   1.0000000

                       cryst. coord.
        k(    1) = (   0.0000000   0.0000000   0.0000000), wk =   1.0000000

     Dense  grid:   276315 G-vectors     FFT dimensions: ( 108, 108, 108)

     Smooth grid:    68773 G-vectors     FFT dimensions: (  72,  72,  72)

     Dynamical RAM for                 wfc:       0.49 MB

     Dynamical RAM for     wfc (w. buffer):       1.46 MB

     Dynamical RAM for           str. fact:       0.35 MB

     Dynamical RAM for           local pot:       0.00 MB

     Dynamical RAM for          nlocal pot:       1.28 MB

     Dynamical RAM for                qrad:       8.16 MB

     Dynamical RAM for          rho,v,vnew:       3.72 MB

     Dynamical RAM for               rhoin:       1.24 MB

     Dynamical RAM for            rho*nmix:       5.62 MB

     Dynamical RAM for           G-vectors:       0.68 MB

     Dynamical RAM for          h,s,v(r/c):       0.18 MB

     Dynamical RAM for          <psi|beta>:       0.16 MB

     Dynamical RAM for                 psi:       1.94 MB

     Dynamical RAM for                hpsi:       1.94 MB

     Dynamical RAM for                spsi:       1.94 MB

     Dynamical RAM for      wfcinit/wfcrot:       1.59 MB

     Dynamical RAM for           addusdens:      34.96 MB

     Estimated static dynamical RAM per process >      25.72 MB

     Estimated max dynamical RAM per process >      60.68 MB

     Estimated total dynamical RAM >       1.42 GB
     Generating pointlists ...
     new r_m :   0.1417 (alat units)  2.1255 (a.u.) for type    1
     new r_m :   0.1497 (alat units)  2.2451 (a.u.) for type    2

     Check: negative core charge=   -0.000005

     Initial potential from superposition of free atoms

     starting charge  146.99440, renormalised to  147.00000
     Starting wfcs are  117 randomized atomic wfcs
     Checking if some PAW data can be deallocated... 
       PAW data deallocated on    2 nodes for type:  1
       PAW data deallocated on   22 nodes for type:  2

     total cpu time spent up to now is        8.1 secs

     Self-consistent Calculation

     iteration #  1     ecut=    45.00 Ry     beta= 0.70
     Davidson diagonalization with overlap
     ethr =  1.00E-02,  avg # of iterations =  3.0

     total cpu time spent up to now is       13.2 secs

     total energy              =   -5168.37729375 Ry
     Harris-Foulkes estimate   =   -5162.11276664 Ry
     estimated scf accuracy    <       6.43116067 Ry

     total magnetization       =     5.00 Bohr mag/cell
     absolute magnetization    =     5.61 Bohr mag/cell

     iteration #  2     ecut=    45.00 Ry     beta= 0.70
     Davidson diagonalization with overlap
     ethr =  4.37E-03,  avg # of iterations =  1.0

     total cpu time spent up to now is       18.0 secs

     total energy              =   -5169.25336102 Ry
     Harris-Foulkes estimate   =   -5168.59228193 Ry
     estimated scf accuracy    <       0.78741308 Ry

     total magnetization       =     3.00 Bohr mag/cell
     absolute magnetization    =     3.38 Bohr mag/cell

     iteration #  3     ecut=    45.00 Ry     beta= 0.70
     Davidson diagonalization with overlap
     ethr =  5.36E-04,  avg # of iterations =  2.5

     total cpu time spent up to now is       23.0 secs

     total energy              =   -5169.30566504 Ry
     Harris-Foulkes estimate   =   -5169.31013736 Ry
     estimated scf accuracy    <       0.04394156 Ry

     total magnetization       =     3.00 Bohr mag/cell
     absolute magnetization    =     3.08 Bohr mag/cell

     iteration #  4     ecut=    45.00 Ry     beta= 0.70
     Davidson diagonalization with overlap
     ethr =  2.99E-05,  avg # of iterations =  7.0

     total cpu time spent up to now is       29.3 secs

     total energy              =   -5169.31510197 Ry
     Harris-Foulkes estimate   =   -5169.31955557 Ry
     estimated scf accuracy    <       0.02037301 Ry

     total magnetization       =     3.00 Bohr mag/cell
     absolute magnetization    =     3.09 Bohr mag/cell

     iteration #  5     ecut=    45.00 Ry     beta= 0.70
     Davidson diagonalization with overlap
     ethr =  1.39E-05,  avg # of iterations =  2.0

     total cpu time spent up to now is       34.2 secs

     total energy              =   -5169.31543520 Ry
     Harris-Foulkes estimate   =   -5169.31673001 Ry
     estimated scf accuracy    <       0.00796127 Ry

     total magnetization       =     3.00 Bohr mag/cell
     absolute magnetization    =     3.14 Bohr mag/cell

     iteration #  6     ecut=    45.00 Ry     beta= 0.70
     Davidson diagonalization with overlap
     ethr =  5.42E-06,  avg # of iterations =  3.5

     total cpu time spent up to now is       39.2 secs

     total energy              =   -5169.31558677 Ry
     Harris-Foulkes estimate   =   -5169.31608641 Ry
     estimated scf accuracy    <       0.00339292 Ry

     total magnetization       =     3.00 Bohr mag/cell
     absolute magnetization    =     3.16 Bohr mag/cell

     iteration #  7     ecut=    45.00 Ry     beta= 0.70
     Davidson diagonalization with overlap
     ethr =  2.31E-06,  avg # of iterations =  3.5

     total cpu time spent up to now is       44.4 secs

     total energy              =   -5169.31586876 Ry
     Harris-Foulkes estimate   =   -5169.31609732 Ry
     estimated scf accuracy    <       0.00066134 Ry

     total magnetization       =     3.00 Bohr mag/cell
     absolute magnetization    =     3.13 Bohr mag/cell

     iteration #  8     ecut=    45.00 Ry     beta= 0.70
     Davidson diagonalization with overlap
     ethr =  4.50E-07,  avg # of iterations =  3.0

     total cpu time spent up to now is       49.4 secs

     total energy              =   -5169.31593978 Ry
     Harris-Foulkes estimate   =   -5169.31592658 Ry
     estimated scf accuracy    <       0.00023687 Ry

     total magnetization       =     3.00 Bohr mag/cell
     absolute magnetization    =     3.13 Bohr mag/cell

     iteration #  9     ecut=    45.00 Ry     beta= 0.70
     Davidson diagonalization with overlap
     ethr =  1.61E-07,  avg # of iterations =  2.5

     total cpu time spent up to now is       54.5 secs

     total energy              =   -5169.31602197 Ry
     Harris-Foulkes estimate   =   -5169.31596931 Ry
     estimated scf accuracy    <       0.00005612 Ry

     total magnetization       =     3.00 Bohr mag/cell
     absolute magnetization    =     3.14 Bohr mag/cell

     iteration # 10     ecut=    45.00 Ry     beta= 0.70
     Davidson diagonalization with overlap
     ethr =  3.82E-08,  avg # of iterations =  3.0

     total cpu time spent up to now is       59.5 secs

     total energy              =   -5169.31604906 Ry
     Harris-Foulkes estimate   =   -5169.31602787 Ry
     estimated scf accuracy    <       0.00001385 Ry

     total magnetization       =     3.00 Bohr mag/cell
     absolute magnetization    =     3.14 Bohr mag/cell

     iteration # 11     ecut=    45.00 Ry     beta= 0.70
     Davidson diagonalization with overlap
     ethr =  9.42E-09,  avg # of iterations =  3.0

     total cpu time spent up to now is       64.5 secs

     total energy              =   -5169.31605437 Ry
     Harris-Foulkes estimate   =   -5169.31605123 Ry
     estimated scf accuracy    <       0.00000221 Ry

     total magnetization       =     3.00 Bohr mag/cell
     absolute magnetization    =     3.14 Bohr mag/cell

     iteration # 12     ecut=    45.00 Ry     beta= 0.70
     Davidson diagonalization with overlap
     ethr =  1.50E-09,  avg # of iterations =  3.0

     total cpu time spent up to now is       69.9 secs

     total energy              =   -5169.31605505 Ry
     Harris-Foulkes estimate   =   -5169.31605496 Ry
     estimated scf accuracy    <       0.00000045 Ry

     total magnetization       =     3.00 Bohr mag/cell
     absolute magnetization    =     3.14 Bohr mag/cell

     iteration # 13     ecut=    45.00 Ry     beta= 0.70
     Davidson diagonalization with overlap
     ethr =  3.05E-10,  avg # of iterations =  3.0

     total cpu time spent up to now is       74.8 secs

     total energy              =   -5169.31605514 Ry
     Harris-Foulkes estimate   =   -5169.31605509 Ry
     estimated scf accuracy    <       0.00000012 Ry

     total magnetization       =     3.00 Bohr mag/cell
     absolute magnetization    =     3.14 Bohr mag/cell

     iteration # 14     ecut=    45.00 Ry     beta= 0.70
     Davidson diagonalization with overlap
     ethr =  8.24E-11,  avg # of iterations =  3.0

     total cpu time spent up to now is       80.1 secs

     total energy              =   -5169.31605516 Ry
     Harris-Foulkes estimate   =   -5169.31605516 Ry
     estimated scf accuracy    <       0.00000001 Ry

     total magnetization       =     3.00 Bohr mag/cell
     absolute magnetization    =     3.14 Bohr mag/cell

     iteration # 15     ecut=    45.00 Ry     beta= 0.70
     Davidson diagonalization with overlap
     ethr =  9.03E-12,  avg # of iterations =  2.5
 
     Magnetic moment per site:
     atom:    1    charge:    9.3054    magn:    0.0994    constr:    0.0000
     atom:    2    charge:    9.2886    magn:    0.0745    constr:    0.0000
     atom:    3    charge:    9.3226    magn:    0.0549    constr:    0.0000
     atom:    4    charge:    9.2880    magn:    0.0754    constr:    0.0000
     atom:    5    charge:    9.2886    magn:    0.0745    constr:    0.0000
     atom:    6    charge:    9.3054    magn:    0.0993    constr:    0.0000
     atom:    7    charge:    9.3079    magn:    0.1116    constr:    0.0000
     atom:    8    charge:   12.4006    magn:    0.0668    constr:    0.0000
     atom:    9    charge:    9.3183    magn:    0.0561    constr:    0.0000
     atom:   10    charge:    9.3079    magn:    0.1116    constr:    0.0000
     atom:   11    charge:    9.3226    magn:    0.0549    constr:    0.0000
     atom:   12    charge:    9.2880    magn:    0.0754    constr:    0.0000
     atom:   13    charge:    9.3183    magn:    0.0561    constr:    0.0000

     total cpu time spent up to now is       85.0 secs

     End of self-consistent calculation

 ------ SPIN UP ------------


          k = 0.0000 0.0000 0.0000 (  8539 PWs)   bands (ev):

   -19.5287 -19.5269 -19.4900 -19.4733 -19.4663  -8.3975  -2.0840  -2.0312
    -1.9843  -1.3093  -0.9008  -0.8918  -0.8870  -0.8544  -0.8229  -0.8095
    -0.7930  -0.7309  -0.6885  -0.6659  -0.6461  -0.6021  -0.5934  -0.5920
    -0.5367  -0.5118  -0.4545  -0.4169  -0.3235  -0.2419  -0.2281  -0.1735
    -0.1410  -0.1311  -0.1237  -0.0318  -0.0166   0.0099   0.0333   0.0502
     0.0661   0.0885   0.1550   0.1993   0.2081   0.2443   0.2541   0.2646
     0.3480   0.3781   0.4190   0.4367   0.5066   0.5245   0.5314   0.5623
     0.5771   0.5835   0.6163   0.6321   0.6898   0.7512   0.7609   0.7807
     0.8154   0.8371   1.2738   1.4115   1.4280   1.5535   2.3626   2.4949
     4.3524   4.3572   4.4252   4.6143   4.9951   5.1399   5.2764   5.6683
     5.9224   6.1481   7.0193   7.3364   7.4623   7.5560   8.1291   8.5099
     8.5478

     occupation numbers 
     1.0000   1.0000   1.0000   1.0000   1.0000   1.0000   1.0000   1.0000
     1.0000   1.0000   1.0000   1.0000   1.0000   1.0000   1.0000   1.0000
     1.0000   1.0000   1.0000   1.0000   1.0000   1.0000   1.0000   1.0000
     1.0000   1.0000   1.0000   1.0000   1.0000   1.0000   1.0000   1.0000
     1.0000   1.0000   1.0000   1.0000   1.0000   1.0000   1.0000   1.0000
     1.0000   1.0000   1.0000   1.0000   1.0000   1.0000   1.0000   1.0000
     1.0000   1.0000   1.0000   1.0000   1.0000   1.0000   1.0000   1.0000
     1.0000   1.0000   1.0000   1.0000   1.0000   1.0000   1.0000   1.0000
     1.0000   1.0000   1.0000   1.0000   1.0000   1.0000   1.0000   1.0000
     1.0000   1.0000   0.9999   0.0000   0.0000   0.0000   0.0000   0.0000
     0.0000   0.0000   0.0000   0.0000   0.0000   0.0000   0.0000   0.0000
     0.0000

 ------ SPIN DOWN ----------


          k = 0.0000 0.0000 0.0000 (  8539 PWs)   bands (ev):

   -19.5243 -19.5173 -19.4674 -19.4465 -19.4258  -8.2968  -1.9529  -1.9417
    -1.8774  -1.2306  -0.8401  -0.8305  -0.8286  -0.7833  -0.7474  -0.7248
    -0.7110  -0.6582  -0.6074  -0.6007  -0.5564  -0.5263  -0.5097  -0.4908
    -0.4691  -0.4427  -0.3749  -0.3382  -0.2559  -0.1572  -0.1540  -0.0992
    -0.0884  -0.0589  -0.0382   0.0335   0.0390   0.0681   0.0957   0.1218
     0.1509   0.1597   0.2131   0.2608   0.2707   0.2994   0.3145   0.3285
     0.4118   0.4368   0.4742   0.4939   0.5611   0.5906   0.5985   0.6362
     0.6375   0.6601   0.6862   0.6913   0.7445   0.8043   0.8248   0.8362
     0.8539   0.8884   1.4080   1.5328   1.5553   1.6710   2.4590   2.6870
     4.6419   4.7385   4.7718   4.8381   5.1724   5.3148   5.5344   5.8988
     6.0838   6.2901   7.3520   7.5409   7.6853   7.7998   8.3354   8.6678
     8.7134

     occupation numbers 
     1.0000   1.0000   1.0000   1.0000   1.0000   1.0000   1.0000   1.0000
     1.0000   1.0000   1.0000   1.0000   1.0000   1.0000   1.0000   1.0000
     1.0000   1.0000   1.0000   1.0000   1.0000   1.0000   1.0000   1.0000
     1.0000   1.0000   1.0000   1.0000   1.0000   1.0000   1.0000   1.0000
     1.0000   1.0000   1.0000   1.0000   1.0000   1.0000   1.0000   1.0000
     1.0000   1.0000   1.0000   1.0000   1.0000   1.0000   1.0000   1.0000
     1.0000   1.0000   1.0000   1.0000   1.0000   1.0000   1.0000   1.0000
     1.0000   1.0000   1.0000   1.0000   1.0000   1.0000   1.0000   1.0000
     1.0000   1.0000   1.0000   1.0000   1.0000   1.0000   1.0000   1.0000
     0.0000   0.0000   0.0000   0.0000   0.0000   0.0000   0.0000   0.0000
     0.0000   0.0000   0.0000   0.0000   0.0000   0.0000   0.0000   0.0000
     0.0000

     the Fermi energy is     4.5195 ev

!    total energy              =   -5169.31605515 Ry
     Harris-Foulkes estimate   =   -5169.31605516 Ry
     estimated scf accuracy    <          5.1E-09 Ry

     total all-electron energy =   -170648.366717 Ry

     The total energy is the sum of the following terms:

     one-electron contribution =    -954.09578334 Ry
     hartree contribution      =     610.28327758 Ry
     xc contribution           =    -459.93288411 Ry
     ewald contribution        =    -459.04729089 Ry
     one-center paw contrib.   =   -3906.52337361 Ry
      -> PAW hartree energy AE =      66.79491230 Ry
      -> PAW hartree energy PS =     -66.64615190 Ry
      -> PAW xc energy AE      =    -297.86300713 Ry
      -> PAW xc energy PS      =      35.22042172 Ry
      -> total E_H with PAW    =     610.43203798 Ry
      -> total E_XC with PAW   =    -722.57546952 Ry
     smearing contrib. (-TS)   =      -0.00000077 Ry

     total magnetization       =     3.00 Bohr mag/cell
     absolute magnetization    =     3.14 Bohr mag/cell

     convergence has been achieved in  15 iterations

     Writing output data file ./tmp/ag12Bic.save/
 
     init_run     :      3.85s CPU      4.05s WALL (       1 calls)
     electrons    :     74.67s CPU     76.99s WALL (       1 calls)

     Called by init_run:
     wfcinit      :      0.59s CPU      0.63s WALL (       1 calls)
     wfcinit:atom :      0.00s CPU      0.00s WALL (       2 calls)
     wfcinit:wfcr :      0.58s CPU      0.61s WALL (       2 calls)
     potinit      :      1.84s CPU      1.90s WALL (       1 calls)
     hinit0       :      0.67s CPU      0.68s WALL (       1 calls)

     Called by electrons:
     c_bands      :     20.22s CPU     20.73s WALL (      15 calls)
     sum_band     :     18.79s CPU     19.42s WALL (      15 calls)
     v_of_rho     :      6.20s CPU      6.33s WALL (      16 calls)
     v_h          :      0.33s CPU      0.34s WALL (      16 calls)
     v_xc         :      5.87s CPU      5.99s WALL (      16 calls)
     newd         :      8.20s CPU      9.07s WALL (      16 calls)
     PAW_pot      :     20.75s CPU     20.92s WALL (      16 calls)
     mix_rho      :      1.83s CPU      1.86s WALL (      15 calls)

     Called by c_bands:
     init_us_2    :      0.15s CPU      0.15s WALL (      62 calls)
     regterg      :     19.48s CPU     19.97s WALL (      30 calls)

     Called by sum_band:
     sum_band:bec :      0.02s CPU      0.02s WALL (      30 calls)
     addusdens    :     14.41s CPU     14.95s WALL (      15 calls)

     Called by *egterg:
     h_psi        :     12.85s CPU     13.09s WALL (     123 calls)
     s_psi        :      1.21s CPU      1.21s WALL (     123 calls)
     g_psi        :      0.04s CPU      0.04s WALL (      91 calls)
     rdiaghg      :      3.09s CPU      3.33s WALL (     121 calls)
     regterg:over :      1.03s CPU      1.04s WALL (      91 calls)
     regterg:upda :      0.81s CPU      0.81s WALL (      91 calls)
     regterg:last :      0.35s CPU      0.36s WALL (      30 calls)
     rdiaghg:chol :      0.11s CPU      0.11s WALL (     121 calls)
     rdiaghg:inve :      0.09s CPU      0.09s WALL (     121 calls)
     rdiaghg:para :      0.27s CPU      0.28s WALL (     242 calls)

     Called by h_psi:
     h_psi:calbec :      1.03s CPU      1.04s WALL (     123 calls)
     vloc_psi     :     10.54s CPU     10.77s WALL (     123 calls)
     add_vuspsi   :      1.21s CPU      1.21s WALL (     123 calls)

     General routines
     calbec       :      1.41s CPU      1.42s WALL (     153 calls)
     fft          :      5.13s CPU      5.19s WALL (     329 calls)
     ffts         :      0.62s CPU      0.64s WALL (     282 calls)
     fftw         :      8.11s CPU      8.28s WALL (    7816 calls)
     interpolate  :      0.66s CPU      0.67s WALL (      32 calls)
 
     Parallel routines
     fft_scatt_xy :      2.13s CPU      2.18s WALL (    8427 calls)
     fft_scatt_yz :      5.34s CPU      5.43s WALL (    8427 calls)

     PAW routines
     PAW_pot      :     20.75s CPU     20.92s WALL (      16 calls)
 
     PWSCF        :   1m22.62s CPU   1m25.36s WALL

 
   This run was terminated on:   3:27:42   4Jun2020            

=------------------------------------------------------------------------------=
   JOB DONE.
=------------------------------------------------------------------------------=
