
     Program PWSCF v.6.5 starts on  4Jun2020 at  3:11:20 

     This program is part of the open-source Quantum ESPRESSO suite
     for quantum simulation of materials; please cite
         "P. Giannozzi et al., J. Phys.:Condens. Matter 21 395502 (2009);
         "P. Giannozzi et al., J. Phys.:Condens. Matter 29 465901 (2017);
          URL http://www.quantum-espresso.org", 
     in publications or presentations arising from this work. More details at
     http://www.quantum-espresso.org/quote

     Parallel version (MPI & OpenMP), running on      24 processor cores
     Number of MPI processes:                24
     Threads/MPI process:                     1

     MPI processes distributed on     1 nodes
     R & G space division:  proc/nbgrp/npool/nimage =      24
     Waiting for input...
     Reading input from standard input

     Current dimensions of program PWSCF are:
     Max number of different atomic species (ntypx) = 10
     Max number of k-points (npk) =  40000
     Max angular momentum in pseudopotentials (lmaxx) =  3
               file Ag.pbe-dn-kjpaw_psl.0.1.UPF: wavefunction(s)  5S 5P 4D renormalized
               file Bi.pbe-dn-kjpaw_psl.1.0.0.UPF: wavefunction(s)  6P 5D renormalized

     gamma-point specific algorithms are used

     Subspace diagonalization in iterative solution of the eigenvalue problem:
     one sub-group per band group will be used
     scalapack distributed-memory algorithm (size of sub-group:  4*  4 procs)

 
     Parallelization info
     --------------------
     sticks:   dense  smooth     PW     G-vecs:    dense   smooth      PW
     Min         941     372     91               106669    26556    3312
     Max         944     374     94               106678    26566    3322
     Sum       22609    8969   2241              2560161   637483   79597
 


     bravais-lattice index     =            1
     lattice parameter (alat)  =      25.0000  a.u.
     unit-cell volume          =   15625.0000 (a.u.)^3
     number of atoms/cell      =           13
     number of atomic types    =            2
     number of electrons       =       147.00
     number of Kohn-Sham states=           89
     kinetic-energy cutoff     =      45.0000  Ry
     charge density cutoff     =     455.0000  Ry
     convergence threshold     =      1.0E-08
     mixing beta               =       0.7000
     number of iterations used =            8  local-TF  mixing
     Exchange-correlation= SLA PW PBX PBC
                           (   1   4   3   4   0   0   0)

     celldm(1)=  25.000000  celldm(2)=   0.000000  celldm(3)=   0.000000
     celldm(4)=   0.000000  celldm(5)=   0.000000  celldm(6)=   0.000000

     crystal axes: (cart. coord. in units of alat)
               a(1) = (   1.000000   0.000000   0.000000 )  
               a(2) = (   0.000000   1.000000   0.000000 )  
               a(3) = (   0.000000   0.000000   1.000000 )  

     reciprocal axes: (cart. coord. in units 2 pi/alat)
               b(1) = (  1.000000  0.000000  0.000000 )  
               b(2) = (  0.000000  1.000000  0.000000 )  
               b(3) = (  0.000000  0.000000  1.000000 )  


     PseudoPot. # 1 for Ag read from file:
     ../../pseudo/Ag.pbe-dn-kjpaw_psl.0.1.UPF
     MD5 check sum: 2edc915f30f03476250949c796a6a376
     Pseudo is Projector augmented-wave + core cor, Zval = 11.0
     Generated using "atomic" code by A. Dal Corso v.5.0.2 svn rev. 9415
     Shape of augmentation charge: PSQ
     Using radial grid of 1237 points,  6 beta functions with: 
                l(1) =   0
                l(2) =   0
                l(3) =   1
                l(4) =   1
                l(5) =   2
                l(6) =   2
     Q(r) pseudized with 0 coefficients 


     PseudoPot. # 2 for Bi read from file:
     ../../pseudo/Bi.pbe-dn-kjpaw_psl.1.0.0.UPF
     MD5 check sum: 266ded784ae3bc462508ed03f0f37963
     Pseudo is Projector augmented-wave + core cor, Zval = 15.0
     Generated using "atomic" code by A. Dal Corso v.6.2.2
     Shape of augmentation charge: PSQ
     Using radial grid of 1283 points,  6 beta functions with: 
                l(1) =   0
                l(2) =   0
                l(3) =   1
                l(4) =   1
                l(5) =   2
                l(6) =   2
     Q(r) pseudized with 0 coefficients 


     atomic species   valence    mass     pseudopotential
        Ag            11.00   107.87000     Ag( 1.00)
        Bi            15.00   208.98000     Bi( 1.00)

     Starting magnetic structure 
     atomic species   magnetization
        Ag           0.700
        Bi           0.000

     No symmetry found


                                    s                        frac. trans.

      isym =  1     identity                                     

 cryst.   s( 1) = (     1          0          0      )
                  (     0          1          0      )
                  (     0          0          1      )

 cart.    s( 1) = (  1.0000000  0.0000000  0.0000000 )
                  (  0.0000000  1.0000000  0.0000000 )
                  (  0.0000000  0.0000000  1.0000000 )


     point group C_1 (1)    
     there are  1 classes
     the character table:

       E    
A      1.00

     the symmetry operations in each class and the name of the first element:

     E        1
          identity                                               

   Cartesian axes

     site n.     atom                  positions (alat units)
         1           Ag  tau(   1) = (   0.1742107   0.1702814   0.3435075  )
         2           Ag  tau(   2) = (   0.2116338   0.3766372   0.4352747  )
         3           Ag  tau(   3) = (   0.5266385   0.2629528   0.2770775  )
         4           Ag  tau(   4) = (   0.3752559   0.2167310   0.4425155  )
         5           Ag  tau(   5) = (   0.4190770   0.2449679   0.0757913  )
         6           Ag  tau(   6) = (   0.4565084   0.4513164   0.1676251  )
         7           Ag  tau(   7) = (   0.2012742   0.1876808   0.1168478  )
         8           Bi  tau(   8) = (   0.3153426   0.3107983   0.2555173  )
         9           Ag  tau(   9) = (   0.2617189   0.5215726   0.2653513  )
        10           Ag  tau(  10) = (   0.4293922   0.4339270   0.3942165  )
        11           Ag  tau(  11) = (   0.1040379   0.3586211   0.2339686  )
        12           Ag  tau(  12) = (   0.2554141   0.4048673   0.0685487  )
        13           Ag  tau(  13) = (   0.3689264   0.1000046   0.2457678  )

   Crystallographic axes

     site n.     atom                  positions (cryst. coord.)
         1           Ag  tau(   1) = (  0.1742107  0.1702814  0.3435075  )
         2           Ag  tau(   2) = (  0.2116338  0.3766372  0.4352747  )
         3           Ag  tau(   3) = (  0.5266385  0.2629528  0.2770775  )
         4           Ag  tau(   4) = (  0.3752559  0.2167310  0.4425155  )
         5           Ag  tau(   5) = (  0.4190770  0.2449679  0.0757913  )
         6           Ag  tau(   6) = (  0.4565084  0.4513164  0.1676251  )
         7           Ag  tau(   7) = (  0.2012742  0.1876808  0.1168478  )
         8           Bi  tau(   8) = (  0.3153426  0.3107983  0.2555173  )
         9           Ag  tau(   9) = (  0.2617189  0.5215726  0.2653513  )
        10           Ag  tau(  10) = (  0.4293922  0.4339270  0.3942165  )
        11           Ag  tau(  11) = (  0.1040379  0.3586211  0.2339686  )
        12           Ag  tau(  12) = (  0.2554141  0.4048673  0.0685487  )
        13           Ag  tau(  13) = (  0.3689264  0.1000046  0.2457678  )

     number of k points=     1  Fermi-Dirac smearing, width (Ry)=  0.0007
                       cart. coord. in units 2pi/alat
        k(    1) = (   0.0000000   0.0000000   0.0000000), wk =   1.0000000

                       cryst. coord.
        k(    1) = (   0.0000000   0.0000000   0.0000000), wk =   1.0000000

     Dense  grid:  1280081 G-vectors     FFT dimensions: ( 180, 180, 180)

     Smooth grid:   318742 G-vectors     FFT dimensions: ( 108, 108, 108)

     Dynamical RAM for                 wfc:       2.25 MB

     Dynamical RAM for     wfc (w. buffer):       6.76 MB

     Dynamical RAM for           str. fact:       1.63 MB

     Dynamical RAM for           local pot:       0.00 MB

     Dynamical RAM for          nlocal pot:       5.92 MB

     Dynamical RAM for                qrad:      13.60 MB

     Dynamical RAM for          rho,v,vnew:      16.75 MB

     Dynamical RAM for               rhoin:       5.58 MB

     Dynamical RAM for            rho*nmix:      26.04 MB

     Dynamical RAM for           G-vectors:       3.15 MB

     Dynamical RAM for          h,s,v(r/c):       0.18 MB

     Dynamical RAM for          <psi|beta>:       0.16 MB

     Dynamical RAM for                 psi:       9.01 MB

     Dynamical RAM for                hpsi:       9.01 MB

     Dynamical RAM for                spsi:       9.01 MB

     Dynamical RAM for      wfcinit/wfcrot:       6.24 MB

     Dynamical RAM for           addusdens:     161.96 MB

     Estimated static dynamical RAM per process >      93.75 MB

     Estimated max dynamical RAM per process >     255.71 MB

     Estimated total dynamical RAM >       5.99 GB
     Generating pointlists ...
     new r_m :   0.0898 (alat units)  2.2451 (a.u.) for type    1
     new r_m :   0.0898 (alat units)  2.2451 (a.u.) for type    2

     Check: negative core charge=   -0.000004

     Initial potential from superposition of free atoms

     starting charge  146.99440, renormalised to  147.00000
     Starting wfcs are  117 randomized atomic wfcs
     Checking if some PAW data can be deallocated... 
       PAW data deallocated on    2 nodes for type:  1
       PAW data deallocated on   22 nodes for type:  2

     total cpu time spent up to now is       18.7 secs

     Self-consistent Calculation

     iteration #  1     ecut=    45.00 Ry     beta= 0.70
     Davidson diagonalization with overlap
     ethr =  1.00E-02,  avg # of iterations =  3.0

     total cpu time spent up to now is       42.8 secs

     total energy              =   -5168.07320374 Ry
     Harris-Foulkes estimate   =   -5161.95640622 Ry
     estimated scf accuracy    <       6.51192373 Ry

     total magnetization       =     7.00 Bohr mag/cell
     absolute magnetization    =     7.00 Bohr mag/cell

     iteration #  2     ecut=    45.00 Ry     beta= 0.70
     Davidson diagonalization with overlap
     ethr =  4.43E-03,  avg # of iterations =  1.0

     total cpu time spent up to now is       65.9 secs

     total energy              =   -5168.93417819 Ry
     Harris-Foulkes estimate   =   -5168.26919813 Ry
     estimated scf accuracy    <       0.85558740 Ry

     total magnetization       =     3.00 Bohr mag/cell
     absolute magnetization    =     3.35 Bohr mag/cell

     iteration #  3     ecut=    45.00 Ry     beta= 0.70
     Davidson diagonalization with overlap
     ethr =  5.82E-04,  avg # of iterations =  3.0

     total cpu time spent up to now is       90.0 secs

     total energy              =   -5168.98921268 Ry
     Harris-Foulkes estimate   =   -5168.99880782 Ry
     estimated scf accuracy    <       0.05883810 Ry

     total magnetization       =     3.00 Bohr mag/cell
     absolute magnetization    =     3.09 Bohr mag/cell

     iteration #  4     ecut=    45.00 Ry     beta= 0.70
     Davidson diagonalization with overlap
     ethr =  4.00E-05,  avg # of iterations =  8.5

     total cpu time spent up to now is      118.6 secs

     total energy              =   -5168.99866124 Ry
     Harris-Foulkes estimate   =   -5169.00566495 Ry
     estimated scf accuracy    <       0.03007687 Ry

     total magnetization       =     3.00 Bohr mag/cell
     absolute magnetization    =     3.05 Bohr mag/cell

     iteration #  5     ecut=    45.00 Ry     beta= 0.70
     Davidson diagonalization with overlap
     ethr =  2.05E-05,  avg # of iterations =  2.0

     total cpu time spent up to now is      142.0 secs

     total energy              =   -5168.99445040 Ry
     Harris-Foulkes estimate   =   -5169.00003635 Ry
     estimated scf accuracy    <       0.01713296 Ry

     total magnetization       =     3.00 Bohr mag/cell
     absolute magnetization    =     3.07 Bohr mag/cell

     iteration #  6     ecut=    45.00 Ry     beta= 0.70
     Davidson diagonalization with overlap
     ethr =  1.17E-05,  avg # of iterations =  8.5

     total cpu time spent up to now is      167.3 secs

     total energy              =   -5168.99389553 Ry
     Harris-Foulkes estimate   =   -5168.99551217 Ry
     estimated scf accuracy    <       0.01030587 Ry

     total magnetization       =     3.00 Bohr mag/cell
     absolute magnetization    =     3.11 Bohr mag/cell

     iteration #  7     ecut=    45.00 Ry     beta= 0.70
     Davidson diagonalization with overlap
     ethr =  7.01E-06,  avg # of iterations =  7.0

     total cpu time spent up to now is      192.0 secs

     total energy              =   -5168.99279037 Ry
     Harris-Foulkes estimate   =   -5168.99446465 Ry
     estimated scf accuracy    <       0.00526818 Ry

     total magnetization       =     3.00 Bohr mag/cell
     absolute magnetization    =     3.10 Bohr mag/cell

     iteration #  8     ecut=    45.00 Ry     beta= 0.70
     Davidson diagonalization with overlap
     ethr =  3.58E-06,  avg # of iterations = 15.0

     total cpu time spent up to now is      219.4 secs

     total energy              =   -5168.99372194 Ry
     Harris-Foulkes estimate   =   -5168.99322706 Ry
     estimated scf accuracy    <       0.00287555 Ry

     total magnetization       =     3.00 Bohr mag/cell
     absolute magnetization    =     3.11 Bohr mag/cell

     iteration #  9     ecut=    45.00 Ry     beta= 0.70
     Davidson diagonalization with overlap
     ethr =  1.96E-06,  avg # of iterations =  9.5

     total cpu time spent up to now is      245.4 secs

     total energy              =   -5168.99452894 Ry
     Harris-Foulkes estimate   =   -5168.99391685 Ry
     estimated scf accuracy    <       0.00143403 Ry

     total magnetization       =     3.00 Bohr mag/cell
     absolute magnetization    =     3.10 Bohr mag/cell

     iteration # 10     ecut=    45.00 Ry     beta= 0.70
     Davidson diagonalization with overlap
     ethr =  9.76E-07,  avg # of iterations =  8.0

     total cpu time spent up to now is      270.8 secs

     total energy              =   -5168.99587537 Ry
     Harris-Foulkes estimate   =   -5168.99460434 Ry
     estimated scf accuracy    <       0.00095379 Ry

     total magnetization       =     3.00 Bohr mag/cell
     absolute magnetization    =     3.09 Bohr mag/cell

     iteration # 11     ecut=    45.00 Ry     beta= 0.70
     Davidson diagonalization with overlap
     ethr =  6.49E-07,  avg # of iterations = 10.5

     total cpu time spent up to now is      296.7 secs

     total energy              =   -5168.99685853 Ry
     Harris-Foulkes estimate   =   -5168.99596175 Ry
     estimated scf accuracy    <       0.00060461 Ry

     total magnetization       =     3.00 Bohr mag/cell
     absolute magnetization    =     3.09 Bohr mag/cell

     iteration # 12     ecut=    45.00 Ry     beta= 0.70
     Davidson diagonalization with overlap
     ethr =  4.11E-07,  avg # of iterations = 10.0

     total cpu time spent up to now is      322.6 secs

     total energy              =   -5168.99712703 Ry
     Harris-Foulkes estimate   =   -5168.99691608 Ry
     estimated scf accuracy    <       0.00025476 Ry

     total magnetization       =     3.00 Bohr mag/cell
     absolute magnetization    =     3.09 Bohr mag/cell

     iteration # 13     ecut=    45.00 Ry     beta= 0.70
     Davidson diagonalization with overlap
     ethr =  1.73E-07,  avg # of iterations =  2.0

     total cpu time spent up to now is      345.9 secs

     total energy              =   -5168.99753532 Ry
     Harris-Foulkes estimate   =   -5168.99713771 Ry
     estimated scf accuracy    <       0.00016865 Ry

     total magnetization       =     3.00 Bohr mag/cell
     absolute magnetization    =     3.09 Bohr mag/cell

     iteration # 14     ecut=    45.00 Ry     beta= 0.70
     Davidson diagonalization with overlap
     ethr =  1.15E-07,  avg # of iterations =  7.5

     total cpu time spent up to now is      371.2 secs

     total energy              =   -5168.99764941 Ry
     Harris-Foulkes estimate   =   -5168.99756394 Ry
     estimated scf accuracy    <       0.00009665 Ry

     total magnetization       =     3.00 Bohr mag/cell
     absolute magnetization    =     3.09 Bohr mag/cell

     iteration # 15     ecut=    45.00 Ry     beta= 0.70
     Davidson diagonalization with overlap
     ethr =  6.57E-08,  avg # of iterations =  1.5

     total cpu time spent up to now is      394.3 secs

     total energy              =   -5168.99780441 Ry
     Harris-Foulkes estimate   =   -5168.99765416 Ry
     estimated scf accuracy    <       0.00003577 Ry

     total magnetization       =     3.00 Bohr mag/cell
     absolute magnetization    =     3.09 Bohr mag/cell

     iteration # 16     ecut=    45.00 Ry     beta= 0.70
     Davidson diagonalization with overlap
     ethr =  2.43E-08,  avg # of iterations =  7.0

     total cpu time spent up to now is      419.0 secs

     total energy              =   -5168.99784624 Ry
     Harris-Foulkes estimate   =   -5168.99780844 Ry
     estimated scf accuracy    <       0.00001692 Ry

     total magnetization       =     3.00 Bohr mag/cell
     absolute magnetization    =     3.09 Bohr mag/cell

     iteration # 17     ecut=    45.00 Ry     beta= 0.70
     Davidson diagonalization with overlap
     ethr =  1.15E-08,  avg # of iterations =  3.5

     total cpu time spent up to now is      442.8 secs

     total energy              =   -5168.99785460 Ry
     Harris-Foulkes estimate   =   -5168.99784914 Ry
     estimated scf accuracy    <       0.00001414 Ry

     total magnetization       =     3.00 Bohr mag/cell
     absolute magnetization    =     3.09 Bohr mag/cell

     iteration # 18     ecut=    45.00 Ry     beta= 0.70
     Davidson diagonalization with overlap
     ethr =  9.62E-09,  avg # of iterations =  2.0

     total cpu time spent up to now is      466.1 secs

     total energy              =   -5168.99785769 Ry
     Harris-Foulkes estimate   =   -5168.99785563 Ry
     estimated scf accuracy    <       0.00000253 Ry

     total magnetization       =     3.00 Bohr mag/cell
     absolute magnetization    =     3.09 Bohr mag/cell

     iteration # 19     ecut=    45.00 Ry     beta= 0.70
     Davidson diagonalization with overlap
     ethr =  1.72E-09,  avg # of iterations =  4.0

     total cpu time spent up to now is      490.4 secs

     total energy              =   -5168.99785926 Ry
     Harris-Foulkes estimate   =   -5168.99785810 Ry
     estimated scf accuracy    <       0.00000235 Ry

     total magnetization       =     3.00 Bohr mag/cell
     absolute magnetization    =     3.09 Bohr mag/cell

     iteration # 20     ecut=    45.00 Ry     beta= 0.70
     Davidson diagonalization with overlap
     ethr =  1.60E-09,  avg # of iterations =  1.5

     total cpu time spent up to now is      513.5 secs

     total energy              =   -5168.99786067 Ry
     Harris-Foulkes estimate   =   -5168.99785939 Ry
     estimated scf accuracy    <       0.00000033 Ry

     total magnetization       =     3.00 Bohr mag/cell
     absolute magnetization    =     3.09 Bohr mag/cell

     iteration # 21     ecut=    45.00 Ry     beta= 0.70
     Davidson diagonalization with overlap
     ethr =  2.23E-10,  avg # of iterations =  4.0

     total cpu time spent up to now is      537.6 secs

     total energy              =   -5168.99786082 Ry
     Harris-Foulkes estimate   =   -5168.99786073 Ry
     estimated scf accuracy    <       0.00000028 Ry

     total magnetization       =     3.00 Bohr mag/cell
     absolute magnetization    =     3.09 Bohr mag/cell

     iteration # 22     ecut=    45.00 Ry     beta= 0.70
     Davidson diagonalization with overlap
     ethr =  1.89E-10,  avg # of iterations =  1.5

     total cpu time spent up to now is      560.6 secs

     total energy              =   -5168.99786115 Ry
     Harris-Foulkes estimate   =   -5168.99786084 Ry
     estimated scf accuracy    <       0.00000010 Ry

     total magnetization       =     3.00 Bohr mag/cell
     absolute magnetization    =     3.09 Bohr mag/cell

     iteration # 23     ecut=    45.00 Ry     beta= 0.70
     Davidson diagonalization with overlap
     ethr =  7.02E-11,  avg # of iterations =  4.0

     total cpu time spent up to now is      584.5 secs

     total energy              =   -5168.99786133 Ry
     Harris-Foulkes estimate   =   -5168.99786116 Ry
     estimated scf accuracy    <       0.00000007 Ry

     total magnetization       =     3.00 Bohr mag/cell
     absolute magnetization    =     3.09 Bohr mag/cell

     iteration # 24     ecut=    45.00 Ry     beta= 0.70
     Davidson diagonalization with overlap
     ethr =  4.73E-11,  avg # of iterations =  3.0

     total cpu time spent up to now is      608.1 secs

     total energy              =   -5168.99786138 Ry
     Harris-Foulkes estimate   =   -5168.99786134 Ry
     estimated scf accuracy    <       0.00000007 Ry

     total magnetization       =     3.00 Bohr mag/cell
     absolute magnetization    =     3.09 Bohr mag/cell

     iteration # 25     ecut=    45.00 Ry     beta= 0.70
     Davidson diagonalization with overlap
     ethr =  4.53E-11,  avg # of iterations =  2.5

     total cpu time spent up to now is      631.5 secs

     total energy              =   -5168.99786141 Ry
     Harris-Foulkes estimate   =   -5168.99786139 Ry
     estimated scf accuracy    <       0.00000001 Ry

     total magnetization       =     3.00 Bohr mag/cell
     absolute magnetization    =     3.09 Bohr mag/cell

     iteration # 26     ecut=    45.00 Ry     beta= 0.70
     Davidson diagonalization with overlap
     ethr =  7.25E-12,  avg # of iterations =  4.0

     total cpu time spent up to now is      656.0 secs

     total energy              =   -5168.99786142 Ry
     Harris-Foulkes estimate   =   -5168.99786141 Ry
     estimated scf accuracy    <       0.00000001 Ry

     total magnetization       =     3.00 Bohr mag/cell
     absolute magnetization    =     3.09 Bohr mag/cell

     iteration # 27     ecut=    45.00 Ry     beta= 0.70
     Davidson diagonalization with overlap
     ethr =  7.25E-12,  avg # of iterations =  2.0
 
     Magnetic moment per site:
     atom:    1    charge:    9.5750    magn:    0.0973    constr:    0.0000
     atom:    2    charge:    9.5789    magn:    0.0901    constr:    0.0000
     atom:    3    charge:    9.5875    magn:    0.0730    constr:    0.0000
     atom:    4    charge:    9.5801    magn:    0.0879    constr:    0.0000
     atom:    5    charge:    9.5789    magn:    0.0901    constr:    0.0000
     atom:    6    charge:    9.5750    magn:    0.0972    constr:    0.0000
     atom:    7    charge:    9.5742    magn:    0.0992    constr:    0.0000
     atom:    8    charge:   12.3523    magn:   -0.0040    constr:    0.0000
     atom:    9    charge:    9.5875    magn:    0.0732    constr:    0.0000
     atom:   10    charge:    9.5742    magn:    0.0992    constr:    0.0000
     atom:   11    charge:    9.5875    magn:    0.0730    constr:    0.0000
     atom:   12    charge:    9.5801    magn:    0.0879    constr:    0.0000
     atom:   13    charge:    9.5875    magn:    0.0732    constr:    0.0000

     total cpu time spent up to now is      678.2 secs

     End of self-consistent calculation

 ------ SPIN UP ------------


          k = 0.0000 0.0000 0.0000 ( 39799 PWs)   bands (ev):

   -26.1335 -26.1327 -26.1323 -26.1284 -26.1277 -14.8762  -8.4163  -8.4148
    -8.4093  -7.1524  -7.1465  -7.1351  -7.1315  -7.1264  -7.1234  -7.1175
    -7.1072  -7.1026  -6.9343  -6.9303  -6.9228  -6.8631  -6.8305  -6.8280
    -6.8254  -6.8240  -6.6311  -6.6294  -6.6237  -6.5146  -6.5139  -6.5080
    -6.4934  -6.4852  -6.3103  -6.3068  -6.2990  -6.2908  -6.2840  -6.1628
    -6.1601  -6.1563  -6.1506  -6.1372  -6.1270  -6.1214  -6.1079  -5.9597
    -5.9423  -5.9381  -5.9358  -5.8275  -5.8197  -5.8088  -5.8010  -5.7981
    -5.7366  -5.7307  -5.7252  -5.7201  -5.7166  -5.7161  -5.6947  -5.5299
    -5.5228  -5.5077  -5.1033  -5.0766  -5.0759  -4.3865  -2.7130  -2.7119
    -2.7040  -2.6459  -2.6350  -1.4540  -1.4508  -1.4309  -0.5603  -0.5407
    -0.5053  -0.0874  -0.0837  -0.0462  -0.0321   0.3426   1.0772   1.0931
     1.2109

     occupation numbers 
     1.0000   1.0000   1.0000   1.0000   1.0000   1.0000   1.0000   1.0000
     1.0000   1.0000   1.0000   1.0000   1.0000   1.0000   1.0000   1.0000
     1.0000   1.0000   1.0000   1.0000   1.0000   1.0000   1.0000   1.0000
     1.0000   1.0000   1.0000   1.0000   1.0000   1.0000   1.0000   1.0000
     1.0000   1.0000   1.0000   1.0000   1.0000   1.0000   1.0000   1.0000
     1.0000   1.0000   1.0000   1.0000   1.0000   1.0000   1.0000   1.0000
     1.0000   1.0000   1.0000   1.0000   1.0000   1.0000   1.0000   1.0000
     1.0000   1.0000   1.0000   1.0000   1.0000   1.0000   1.0000   1.0000
     1.0000   1.0000   1.0000   1.0000   1.0000   1.0000   1.0000   1.0000
     1.0000   1.0000   1.0000   0.0000   0.0000   0.0000   0.0000   0.0000
     0.0000   0.0000   0.0000   0.0000   0.0000   0.0000   0.0000   0.0000
     0.0000

 ------ SPIN DOWN ----------


          k = 0.0000 0.0000 0.0000 ( 39799 PWs)   bands (ev):

   -26.1320 -26.1313 -26.1313 -26.1306 -26.1300 -14.8627  -8.3475  -8.3466
    -8.3396  -7.0769  -7.0731  -7.0669  -7.0607  -7.0570  -7.0533  -7.0497
    -7.0445  -7.0406  -6.8472  -6.8439  -6.8361  -6.7589  -6.7567  -6.7544
    -6.7483  -6.7280  -6.5439  -6.5428  -6.5328  -6.4423  -6.4415  -6.4399
    -6.4275  -6.4258  -6.2446  -6.2433  -6.2395  -6.2308  -6.2282  -6.1097
    -6.1085  -6.1056  -6.1024  -6.0936  -6.0868  -6.0828  -6.0732  -5.8892
    -5.8798  -5.8784  -5.8762  -5.7614  -5.7587  -5.7493  -5.7454  -5.7437
    -5.6808  -5.6669  -5.6652  -5.6645  -5.6617  -5.6580  -5.6488  -5.4775
    -5.4729  -5.4645  -4.9631  -4.9589  -4.9585  -4.2354  -2.4674  -2.4644
    -2.4423  -2.4389  -2.4382  -1.2937  -1.2914  -1.2859  -0.3415  -0.3298
    -0.3180   0.1852   0.1900   0.1958   0.2111   0.4720   1.2336   1.2371
     1.3928

     occupation numbers 
     1.0000   1.0000   1.0000   1.0000   1.0000   1.0000   1.0000   1.0000
     1.0000   1.0000   1.0000   1.0000   1.0000   1.0000   1.0000   1.0000
     1.0000   1.0000   1.0000   1.0000   1.0000   1.0000   1.0000   1.0000
     1.0000   1.0000   1.0000   1.0000   1.0000   1.0000   1.0000   1.0000
     1.0000   1.0000   1.0000   1.0000   1.0000   1.0000   1.0000   1.0000
     1.0000   1.0000   1.0000   1.0000   1.0000   1.0000   1.0000   1.0000
     1.0000   1.0000   1.0000   1.0000   1.0000   1.0000   1.0000   1.0000
     1.0000   1.0000   1.0000   1.0000   1.0000   1.0000   1.0000   1.0000
     1.0000   1.0000   1.0000   1.0000   1.0000   1.0000   0.7805   0.7225
     0.2033   0.1516   0.1421   0.0000   0.0000   0.0000   0.0000   0.0000
     0.0000   0.0000   0.0000   0.0000   0.0000   0.0000   0.0000   0.0000
     0.0000

     the Fermi energy is    -2.4553 ev

!    total energy              =   -5168.99786142 Ry
     Harris-Foulkes estimate   =   -5168.99786142 Ry
     estimated scf accuracy    <          4.3E-09 Ry

     total all-electron energy =   -170648.048523 Ry

     The total energy is the sum of the following terms:

     one-electron contribution =   -3033.87367353 Ry
     hartree contribution      =    1615.90758450 Ry
     xc contribution           =    -459.73604060 Ry
     ewald contribution        =     615.22004499 Ry
     one-center paw contrib.   =   -3906.51405760 Ry
      -> PAW hartree energy AE =      66.71885464 Ry
      -> PAW hartree energy PS =     -66.57014664 Ry
      -> PAW xc energy AE      =    -297.85462685 Ry
      -> PAW xc energy PS      =      35.21237769 Ry
      -> total E_H with PAW    =    1616.05629250 Ry
      -> total E_XC with PAW   =    -722.37828976 Ry
     smearing contrib. (-TS)   =      -0.00171918 Ry

     total magnetization       =     3.00 Bohr mag/cell
     absolute magnetization    =     3.09 Bohr mag/cell

     convergence has been achieved in  27 iterations

     Writing output data file ./tmp/ag12Bic.save/
 
     init_run     :     13.87s CPU     14.55s WALL (       1 calls)
     electrons    :    635.56s CPU    659.82s WALL (       1 calls)

     Called by init_run:
     wfcinit      :      3.35s CPU      3.43s WALL (       1 calls)
     wfcinit:atom :      0.02s CPU      0.02s WALL (       2 calls)
     wfcinit:wfcr :      3.27s CPU      3.34s WALL (       2 calls)
     potinit      :      3.84s CPU      4.01s WALL (       1 calls)
     hinit0       :      1.67s CPU      1.71s WALL (       1 calls)

     Called by electrons:
     c_bands      :    188.10s CPU    191.35s WALL (      27 calls)
     sum_band     :    242.36s CPU    252.51s WALL (      27 calls)
     v_of_rho     :     55.54s CPU     56.74s WALL (      28 calls)
     v_h          :      3.20s CPU      3.22s WALL (      28 calls)
     v_xc         :     52.34s CPU     53.52s WALL (      28 calls)
     newd         :     86.49s CPU     95.62s WALL (      28 calls)
     PAW_pot      :     35.73s CPU     36.11s WALL (      28 calls)
     mix_rho      :     25.21s CPU     25.46s WALL (      27 calls)

     Called by c_bands:
     init_us_2    :      1.32s CPU      1.34s WALL (     110 calls)
     regterg      :    181.97s CPU    185.12s WALL (      54 calls)

     Called by sum_band:
     sum_band:bec :      0.03s CPU      0.03s WALL (      54 calls)
     addusdens    :    195.28s CPU    205.01s WALL (      27 calls)

     Called by *egterg:
     h_psi        :    139.29s CPU    140.50s WALL (     328 calls)
     s_psi        :     10.55s CPU     10.58s WALL (     328 calls)
     g_psi        :      0.33s CPU      0.33s WALL (     272 calls)
     rdiaghg      :      8.57s CPU      9.05s WALL (     326 calls)
     regterg:over :      9.59s CPU      9.61s WALL (     272 calls)
     regterg:upda :      8.34s CPU      8.39s WALL (     272 calls)
     regterg:last :      2.77s CPU      2.78s WALL (      54 calls)
     rdiaghg:chol :      0.31s CPU      0.31s WALL (     326 calls)
     rdiaghg:inve :      0.24s CPU      0.25s WALL (     326 calls)
     rdiaghg:para :      0.76s CPU      0.77s WALL (     652 calls)

     Called by h_psi:
     h_psi:calbec :      7.99s CPU      8.02s WALL (     328 calls)
     vloc_psi     :    120.15s CPU    121.30s WALL (     328 calls)
     add_vuspsi   :     10.41s CPU     10.43s WALL (     328 calls)

     General routines
     calbec       :     10.64s CPU     10.67s WALL (     382 calls)
     fft          :     54.39s CPU     54.79s WALL (     581 calls)
     ffts         :     11.20s CPU     11.30s WALL (     626 calls)
     fftw         :     87.74s CPU     88.82s WALL (   13638 calls)
     interpolate  :      6.74s CPU      6.80s WALL (      56 calls)
 
     Parallel routines
     fft_scatt_xy :     22.05s CPU     22.42s WALL (   14845 calls)
     fft_scatt_yz :     47.08s CPU     47.55s WALL (   14845 calls)

     PAW routines
     PAW_pot      :     35.73s CPU     36.11s WALL (      28 calls)
 
     PWSCF        :  10m53.62s CPU  11m19.25s WALL

 
   This run was terminated on:   3:22:39   4Jun2020            

=------------------------------------------------------------------------------=
   JOB DONE.
=------------------------------------------------------------------------------=
