
     Program PWSCF v.6.5 starts on  4Jun2020 at  1:22:33 

     This program is part of the open-source Quantum ESPRESSO suite
     for quantum simulation of materials; please cite
         "P. Giannozzi et al., J. Phys.:Condens. Matter 21 395502 (2009);
         "P. Giannozzi et al., J. Phys.:Condens. Matter 29 465901 (2017);
          URL http://www.quantum-espresso.org", 
     in publications or presentations arising from this work. More details at
     http://www.quantum-espresso.org/quote

     Parallel version (MPI & OpenMP), running on      24 processor cores
     Number of MPI processes:                24
     Threads/MPI process:                     1

     MPI processes distributed on     1 nodes
     R & G space division:  proc/nbgrp/npool/nimage =      24
     Waiting for input...
     Reading input from standard input

     Current dimensions of program PWSCF are:
     Max number of different atomic species (ntypx) = 10
     Max number of k-points (npk) =  40000
     Max angular momentum in pseudopotentials (lmaxx) =  3
               file Ag.pbe-dn-kjpaw_psl.0.1.UPF: wavefunction(s)  5S 5P 4D renormalized
               file Bi.pbe-dn-kjpaw_psl.1.0.0.UPF: wavefunction(s)  6P 5D renormalized

     gamma-point specific algorithms are used

     Subspace diagonalization in iterative solution of the eigenvalue problem:
     one sub-group per band group will be used
     scalapack distributed-memory algorithm (size of sub-group:  4*  4 procs)

 
     Parallelization info
     --------------------
     sticks:   dense  smooth     PW     G-vecs:    dense   smooth      PW
     Min        2411     953    237               437012   108738   13581
     Max        2414     956    240               437022   108748   13592
     Sum       57925   22901   5721             10488403  2609847  326029
 


     bravais-lattice index     =            1
     lattice parameter (alat)  =      40.0000  a.u.
     unit-cell volume          =   64000.0000 (a.u.)^3
     number of atoms/cell      =           13
     number of atomic types    =            2
     number of electrons       =       147.00
     number of Kohn-Sham states=           89
     kinetic-energy cutoff     =      45.0000  Ry
     charge density cutoff     =     455.0000  Ry
     convergence threshold     =      1.0E-08
     mixing beta               =       0.7000
     number of iterations used =            8  local-TF  mixing
     Exchange-correlation= SLA PW PBX PBC
                           (   1   4   3   4   0   0   0)

     celldm(1)=  40.000000  celldm(2)=   0.000000  celldm(3)=   0.000000
     celldm(4)=   0.000000  celldm(5)=   0.000000  celldm(6)=   0.000000

     crystal axes: (cart. coord. in units of alat)
               a(1) = (   1.000000   0.000000   0.000000 )  
               a(2) = (   0.000000   1.000000   0.000000 )  
               a(3) = (   0.000000   0.000000   1.000000 )  

     reciprocal axes: (cart. coord. in units 2 pi/alat)
               b(1) = (  1.000000  0.000000  0.000000 )  
               b(2) = (  0.000000  1.000000  0.000000 )  
               b(3) = (  0.000000  0.000000  1.000000 )  


     PseudoPot. # 1 for Ag read from file:
     ../../pseudo/Ag.pbe-dn-kjpaw_psl.0.1.UPF
     MD5 check sum: 2edc915f30f03476250949c796a6a376
     Pseudo is Projector augmented-wave + core cor, Zval = 11.0
     Generated using "atomic" code by A. Dal Corso v.5.0.2 svn rev. 9415
     Shape of augmentation charge: PSQ
     Using radial grid of 1237 points,  6 beta functions with: 
                l(1) =   0
                l(2) =   0
                l(3) =   1
                l(4) =   1
                l(5) =   2
                l(6) =   2
     Q(r) pseudized with 0 coefficients 


     PseudoPot. # 2 for Bi read from file:
     ../../pseudo/Bi.pbe-dn-kjpaw_psl.1.0.0.UPF
     MD5 check sum: 266ded784ae3bc462508ed03f0f37963
     Pseudo is Projector augmented-wave + core cor, Zval = 15.0
     Generated using "atomic" code by A. Dal Corso v.6.2.2
     Shape of augmentation charge: PSQ
     Using radial grid of 1283 points,  6 beta functions with: 
                l(1) =   0
                l(2) =   0
                l(3) =   1
                l(4) =   1
                l(5) =   2
                l(6) =   2
     Q(r) pseudized with 0 coefficients 


     atomic species   valence    mass     pseudopotential
        Ag            11.00   107.87000     Ag( 1.00)
        Bi            15.00   208.98000     Bi( 1.00)

     Starting magnetic structure 
     atomic species   magnetization
        Ag           0.700
        Bi           0.000

     No symmetry found


                                    s                        frac. trans.

      isym =  1     identity                                     

 cryst.   s( 1) = (     1          0          0      )
                  (     0          1          0      )
                  (     0          0          1      )

 cart.    s( 1) = (  1.0000000  0.0000000  0.0000000 )
                  (  0.0000000  1.0000000  0.0000000 )
                  (  0.0000000  0.0000000  1.0000000 )


     point group C_1 (1)    
     there are  1 classes
     the character table:

       E    
A      1.00

     the symmetry operations in each class and the name of the first element:

     E        1
          identity                                               

   Cartesian axes

     site n.     atom                  positions (alat units)
         1           Ag  tau(   1) = (   0.1088817   0.1064259   0.2146922  )
         2           Ag  tau(   2) = (   0.1322711   0.2353982   0.2720467  )
         3           Ag  tau(   3) = (   0.3291491   0.1643455   0.1731735  )
         4           Ag  tau(   4) = (   0.2345349   0.1354569   0.2765722  )
         5           Ag  tau(   5) = (   0.2619231   0.1531049   0.0473696  )
         6           Ag  tau(   6) = (   0.2853177   0.2820728   0.1047657  )
         7           Ag  tau(   7) = (   0.1257964   0.1173005   0.0730299  )
         8           Bi  tau(   8) = (   0.1970891   0.1942489   0.1596983  )
         9           Ag  tau(   9) = (   0.1635743   0.3259829   0.1658445  )
        10           Ag  tau(  10) = (   0.2683701   0.2712044   0.2463853  )
        11           Ag  tau(  11) = (   0.0650237   0.2241382   0.1462304  )
        12           Ag  tau(  12) = (   0.1596338   0.2530421   0.0428429  )
        13           Ag  tau(  13) = (   0.2305790   0.0625028   0.1536049  )

   Crystallographic axes

     site n.     atom                  positions (cryst. coord.)
         1           Ag  tau(   1) = (  0.1088817  0.1064259  0.2146922  )
         2           Ag  tau(   2) = (  0.1322711  0.2353982  0.2720467  )
         3           Ag  tau(   3) = (  0.3291491  0.1643455  0.1731735  )
         4           Ag  tau(   4) = (  0.2345349  0.1354569  0.2765722  )
         5           Ag  tau(   5) = (  0.2619231  0.1531049  0.0473696  )
         6           Ag  tau(   6) = (  0.2853177  0.2820728  0.1047657  )
         7           Ag  tau(   7) = (  0.1257964  0.1173005  0.0730299  )
         8           Bi  tau(   8) = (  0.1970891  0.1942489  0.1596983  )
         9           Ag  tau(   9) = (  0.1635743  0.3259829  0.1658445  )
        10           Ag  tau(  10) = (  0.2683701  0.2712044  0.2463853  )
        11           Ag  tau(  11) = (  0.0650237  0.2241382  0.1462304  )
        12           Ag  tau(  12) = (  0.1596338  0.2530421  0.0428429  )
        13           Ag  tau(  13) = (  0.2305790  0.0625028  0.1536049  )

     number of k points=     1  Fermi-Dirac smearing, width (Ry)=  0.0007
                       cart. coord. in units 2pi/alat
        k(    1) = (   0.0000000   0.0000000   0.0000000), wk =   1.0000000

                       cryst. coord.
        k(    1) = (   0.0000000   0.0000000   0.0000000), wk =   1.0000000

     Dense  grid:  5244202 G-vectors     FFT dimensions: ( 288, 288, 288)

     Smooth grid:  1304924 G-vectors     FFT dimensions: ( 180, 180, 180)

     Dynamical RAM for                 wfc:       9.23 MB

     Dynamical RAM for     wfc (w. buffer):      27.69 MB

     Dynamical RAM for           str. fact:       6.67 MB

     Dynamical RAM for           local pot:       0.00 MB

     Dynamical RAM for          nlocal pot:      24.27 MB

     Dynamical RAM for                qrad:      21.76 MB

     Dynamical RAM for          rho,v,vnew:      65.57 MB

     Dynamical RAM for               rhoin:      21.86 MB

     Dynamical RAM for            rho*nmix:     106.69 MB

     Dynamical RAM for           G-vectors:      12.92 MB

     Dynamical RAM for          h,s,v(r/c):       0.18 MB

     Dynamical RAM for          <psi|beta>:       0.16 MB

     Dynamical RAM for                 psi:      36.92 MB

     Dynamical RAM for                hpsi:      36.92 MB

     Dynamical RAM for                spsi:      36.92 MB

     Dynamical RAM for      wfcinit/wfcrot:      24.58 MB

     Dynamical RAM for           addusdens:     663.50 MB

     Estimated static dynamical RAM per process >     342.98 MB

     Estimated max dynamical RAM per process >    1006.48 MB

     Estimated total dynamical RAM >      23.59 GB
     Generating pointlists ...
     new r_m :   0.0561 (alat units)  2.2451 (a.u.) for type    1
     new r_m :   0.0561 (alat units)  2.2451 (a.u.) for type    2

     Check: negative core charge=   -0.000002

     Initial potential from superposition of free atoms

     starting charge  146.99440, renormalised to  147.00000
     Starting wfcs are  117 randomized atomic wfcs
     Checking if some PAW data can be deallocated... 
       PAW data deallocated on    2 nodes for type:  1
       PAW data deallocated on   22 nodes for type:  2

     total cpu time spent up to now is       61.5 secs

     Self-consistent Calculation

     iteration #  1     ecut=    45.00 Ry     beta= 0.70
     Davidson diagonalization with overlap
     ethr =  1.00E-02,  avg # of iterations =  2.5

     total cpu time spent up to now is      160.4 secs

     total energy              =   -5168.07301601 Ry
     Harris-Foulkes estimate   =   -5161.95938072 Ry
     estimated scf accuracy    <       6.50758723 Ry

     total magnetization       =     7.00 Bohr mag/cell
     absolute magnetization    =     7.00 Bohr mag/cell

     iteration #  2     ecut=    45.00 Ry     beta= 0.70
     Davidson diagonalization with overlap
     ethr =  4.43E-03,  avg # of iterations =  1.0

     total cpu time spent up to now is      255.0 secs

     total energy              =   -5168.93091505 Ry
     Harris-Foulkes estimate   =   -5168.26610360 Ry
     estimated scf accuracy    <       0.85039074 Ry

     total magnetization       =     3.00 Bohr mag/cell
     absolute magnetization    =     3.33 Bohr mag/cell

     iteration #  3     ecut=    45.00 Ry     beta= 0.70
     Davidson diagonalization with overlap
     ethr =  5.78E-04,  avg # of iterations =  3.0

     total cpu time spent up to now is      353.2 secs

     total energy              =   -5168.98759985 Ry
     Harris-Foulkes estimate   =   -5168.99625634 Ry
     estimated scf accuracy    <       0.05352697 Ry

     total magnetization       =     3.00 Bohr mag/cell
     absolute magnetization    =     3.09 Bohr mag/cell

     iteration #  4     ecut=    45.00 Ry     beta= 0.70
     Davidson diagonalization with overlap
     ethr =  3.64E-05,  avg # of iterations = 12.0

     total cpu time spent up to now is      472.3 secs

     total energy              =   -5168.99742295 Ry
     Harris-Foulkes estimate   =   -5169.00322409 Ry
     estimated scf accuracy    <       0.02795145 Ry

     total magnetization       =     3.00 Bohr mag/cell
     absolute magnetization    =     3.04 Bohr mag/cell

     iteration #  5     ecut=    45.00 Ry     beta= 0.70
     Davidson diagonalization with overlap
     ethr =  1.90E-05,  avg # of iterations =  2.0

     total cpu time spent up to now is      567.7 secs

     total energy              =   -5168.99518327 Ry
     Harris-Foulkes estimate   =   -5168.99856137 Ry
     estimated scf accuracy    <       0.01730575 Ry

     total magnetization       =     3.00 Bohr mag/cell
     absolute magnetization    =     3.06 Bohr mag/cell

     iteration #  6     ecut=    45.00 Ry     beta= 0.70
     Davidson diagonalization with overlap
     ethr =  1.18E-05,  avg # of iterations =  6.5

     total cpu time spent up to now is      667.2 secs

     total energy              =   -5168.99366353 Ry
     Harris-Foulkes estimate   =   -5168.99579959 Ry
     estimated scf accuracy    <       0.01196785 Ry

     total magnetization       =     3.00 Bohr mag/cell
     absolute magnetization    =     3.08 Bohr mag/cell

     iteration #  7     ecut=    45.00 Ry     beta= 0.70
     Davidson diagonalization with overlap
     ethr =  8.14E-06,  avg # of iterations = 10.0

     total cpu time spent up to now is      771.4 secs

     total energy              =   -5168.99172838 Ry
     Harris-Foulkes estimate   =   -5168.99417764 Ry
     estimated scf accuracy    <       0.00695880 Ry

     total magnetization       =     3.00 Bohr mag/cell
     absolute magnetization    =     3.09 Bohr mag/cell

     iteration #  8     ecut=    45.00 Ry     beta= 0.70
     Davidson diagonalization with overlap
     ethr =  4.73E-06,  avg # of iterations = 18.0

     total cpu time spent up to now is      881.2 secs

     total energy              =   -5168.99326521 Ry
     Harris-Foulkes estimate   =   -5168.99195632 Ry
     estimated scf accuracy    <       0.00447626 Ry

     total magnetization       =     3.00 Bohr mag/cell
     absolute magnetization    =     3.09 Bohr mag/cell

     iteration #  9     ecut=    45.00 Ry     beta= 0.70
     Davidson diagonalization with overlap
     ethr =  3.05E-06,  avg # of iterations =  8.0

     total cpu time spent up to now is      984.9 secs

     total energy              =   -5168.99452813 Ry
     Harris-Foulkes estimate   =   -5168.99365181 Ry
     estimated scf accuracy    <       0.00242605 Ry

     total magnetization       =     3.00 Bohr mag/cell
     absolute magnetization    =     3.08 Bohr mag/cell

     iteration # 10     ecut=    45.00 Ry     beta= 0.70
     Davidson diagonalization with overlap
     ethr =  1.65E-06,  avg # of iterations = 10.0

     total cpu time spent up to now is     1089.2 secs

     total energy              =   -5168.99482762 Ry
     Harris-Foulkes estimate   =   -5168.99464092 Ry
     estimated scf accuracy    <       0.00178145 Ry

     total magnetization       =     3.00 Bohr mag/cell
     absolute magnetization    =     3.07 Bohr mag/cell

     iteration # 11     ecut=    45.00 Ry     beta= 0.70
     Davidson diagonalization with overlap
     ethr =  1.21E-06,  avg # of iterations =  3.0

     total cpu time spent up to now is     1186.7 secs

     total energy              =   -5168.99513188 Ry
     Harris-Foulkes estimate   =   -5168.99490152 Ry
     estimated scf accuracy    <       0.00102010 Ry

     total magnetization       =     3.00 Bohr mag/cell
     absolute magnetization    =     3.08 Bohr mag/cell

     iteration # 12     ecut=    45.00 Ry     beta= 0.70
     Davidson diagonalization with overlap
     ethr =  6.94E-07,  avg # of iterations =  8.0

     total cpu time spent up to now is     1290.1 secs

     total energy              =   -5168.99495648 Ry
     Harris-Foulkes estimate   =   -5168.99520951 Ry
     estimated scf accuracy    <       0.00082021 Ry

     total magnetization       =     3.00 Bohr mag/cell
     absolute magnetization    =     3.08 Bohr mag/cell

     iteration # 13     ecut=    45.00 Ry     beta= 0.70
     Davidson diagonalization with overlap
     ethr =  5.58E-07,  avg # of iterations =  2.0

     total cpu time spent up to now is     1385.9 secs

     total energy              =   -5168.99491119 Ry
     Harris-Foulkes estimate   =   -5168.99501858 Ry
     estimated scf accuracy    <       0.00043437 Ry

     total magnetization       =     3.00 Bohr mag/cell
     absolute magnetization    =     3.08 Bohr mag/cell

     iteration # 14     ecut=    45.00 Ry     beta= 0.70
     Davidson diagonalization with overlap
     ethr =  2.95E-07,  avg # of iterations =  1.5

     total cpu time spent up to now is     1480.6 secs

     total energy              =   -5168.99496513 Ry
     Harris-Foulkes estimate   =   -5168.99492062 Ry
     estimated scf accuracy    <       0.00029598 Ry

     total magnetization       =     3.00 Bohr mag/cell
     absolute magnetization    =     3.08 Bohr mag/cell

     iteration # 15     ecut=    45.00 Ry     beta= 0.70
     Davidson diagonalization with overlap
     c_bands:  3 eigenvalues not converged
     ethr =  2.01E-07,  avg # of iterations = 11.0

     total cpu time spent up to now is     1582.4 secs

     total energy              =   -5168.99500869 Ry
     Harris-Foulkes estimate   =   -5168.99498134 Ry
     estimated scf accuracy    <       0.00024133 Ry

     total magnetization       =     3.00 Bohr mag/cell
     absolute magnetization    =     3.08 Bohr mag/cell

     iteration # 16     ecut=    45.00 Ry     beta= 0.70
     Davidson diagonalization with overlap
     c_bands:  1 eigenvalues not converged
     ethr =  1.64E-07,  avg # of iterations = 10.5

     total cpu time spent up to now is     1682.3 secs

     total energy              =   -5168.99512864 Ry
     Harris-Foulkes estimate   =   -5168.99501391 Ry
     estimated scf accuracy    <       0.00014735 Ry

     total magnetization       =     3.00 Bohr mag/cell
     absolute magnetization    =     3.08 Bohr mag/cell

     iteration # 17     ecut=    45.00 Ry     beta= 0.70
     Davidson diagonalization with overlap
     ethr =  1.00E-07,  avg # of iterations =  3.5

     total cpu time spent up to now is     1778.3 secs

     total energy              =   -5168.99512821 Ry
     Harris-Foulkes estimate   =   -5168.99513570 Ry
     estimated scf accuracy    <       0.00011251 Ry

     total magnetization       =     3.00 Bohr mag/cell
     absolute magnetization    =     3.08 Bohr mag/cell

     iteration # 18     ecut=    45.00 Ry     beta= 0.70
     Davidson diagonalization with overlap
     ethr =  7.65E-08,  avg # of iterations =  1.0

     total cpu time spent up to now is     1872.6 secs

     total energy              =   -5168.99515623 Ry
     Harris-Foulkes estimate   =   -5168.99513392 Ry
     estimated scf accuracy    <       0.00005991 Ry

     total magnetization       =     3.00 Bohr mag/cell
     absolute magnetization    =     3.08 Bohr mag/cell

     iteration # 19     ecut=    45.00 Ry     beta= 0.70
     Davidson diagonalization with overlap
     ethr =  4.08E-08,  avg # of iterations =  3.0

     total cpu time spent up to now is     1968.3 secs

     total energy              =   -5168.99519344 Ry
     Harris-Foulkes estimate   =   -5168.99515885 Ry
     estimated scf accuracy    <       0.00002685 Ry

     total magnetization       =     3.00 Bohr mag/cell
     absolute magnetization    =     3.08 Bohr mag/cell

     iteration # 20     ecut=    45.00 Ry     beta= 0.70
     Davidson diagonalization with overlap
     ethr =  1.83E-08,  avg # of iterations =  3.0

     total cpu time spent up to now is     2065.0 secs

     total energy              =   -5168.99521427 Ry
     Harris-Foulkes estimate   =   -5168.99519555 Ry
     estimated scf accuracy    <       0.00003545 Ry

     total magnetization       =     3.00 Bohr mag/cell
     absolute magnetization    =     3.08 Bohr mag/cell

     iteration # 21     ecut=    45.00 Ry     beta= 0.70
     Davidson diagonalization with overlap
     ethr =  1.83E-08,  avg # of iterations =  2.0

     total cpu time spent up to now is     2160.5 secs

     total energy              =   -5168.99523362 Ry
     Harris-Foulkes estimate   =   -5168.99521782 Ry
     estimated scf accuracy    <       0.00001431 Ry

     total magnetization       =     3.00 Bohr mag/cell
     absolute magnetization    =     3.08 Bohr mag/cell

     iteration # 22     ecut=    45.00 Ry     beta= 0.70
     Davidson diagonalization with overlap
     ethr =  9.73E-09,  avg # of iterations =  2.5

     total cpu time spent up to now is     2256.7 secs

     total energy              =   -5168.99524226 Ry
     Harris-Foulkes estimate   =   -5168.99523412 Ry
     estimated scf accuracy    <       0.00000667 Ry

     total magnetization       =     3.00 Bohr mag/cell
     absolute magnetization    =     3.08 Bohr mag/cell

     iteration # 23     ecut=    45.00 Ry     beta= 0.70
     Davidson diagonalization with overlap
     ethr =  4.54E-09,  avg # of iterations =  6.0

     total cpu time spent up to now is     2355.5 secs

     total energy              =   -5168.99524359 Ry
     Harris-Foulkes estimate   =   -5168.99524280 Ry
     estimated scf accuracy    <       0.00000303 Ry

     total magnetization       =     3.00 Bohr mag/cell
     absolute magnetization    =     3.08 Bohr mag/cell

     iteration # 24     ecut=    45.00 Ry     beta= 0.70
     Davidson diagonalization with overlap
     ethr =  2.06E-09,  avg # of iterations =  3.0

     total cpu time spent up to now is     2451.9 secs

     total energy              =   -5168.99524613 Ry
     Harris-Foulkes estimate   =   -5168.99524386 Ry
     estimated scf accuracy    <       0.00000180 Ry

     total magnetization       =     3.00 Bohr mag/cell
     absolute magnetization    =     3.08 Bohr mag/cell

     iteration # 25     ecut=    45.00 Ry     beta= 0.70
     Davidson diagonalization with overlap
     ethr =  1.23E-09,  avg # of iterations =  2.0

     total cpu time spent up to now is     2547.8 secs

     total energy              =   -5168.99524737 Ry
     Harris-Foulkes estimate   =   -5168.99524627 Ry
     estimated scf accuracy    <       0.00000075 Ry

     total magnetization       =     3.00 Bohr mag/cell
     absolute magnetization    =     3.08 Bohr mag/cell

     iteration # 26     ecut=    45.00 Ry     beta= 0.70
     Davidson diagonalization with overlap
     ethr =  5.07E-10,  avg # of iterations =  3.5

     total cpu time spent up to now is     2646.2 secs

     total energy              =   -5168.99524761 Ry
     Harris-Foulkes estimate   =   -5168.99524742 Ry
     estimated scf accuracy    <       0.00000060 Ry

     total magnetization       =     3.00 Bohr mag/cell
     absolute magnetization    =     3.08 Bohr mag/cell

     iteration # 27     ecut=    45.00 Ry     beta= 0.70
     Davidson diagonalization with overlap
     ethr =  4.08E-10,  avg # of iterations =  2.0

     total cpu time spent up to now is     2742.1 secs

     total energy              =   -5168.99524808 Ry
     Harris-Foulkes estimate   =   -5168.99524765 Ry
     estimated scf accuracy    <       0.00000019 Ry

     total magnetization       =     3.00 Bohr mag/cell
     absolute magnetization    =     3.08 Bohr mag/cell

     iteration # 28     ecut=    45.00 Ry     beta= 0.70
     Davidson diagonalization with overlap
     ethr =  1.30E-10,  avg # of iterations =  2.5

     total cpu time spent up to now is     2837.9 secs

     total energy              =   -5168.99524804 Ry
     Harris-Foulkes estimate   =   -5168.99524809 Ry
     estimated scf accuracy    <       0.00000009 Ry

     total magnetization       =     3.00 Bohr mag/cell
     absolute magnetization    =     3.08 Bohr mag/cell

     iteration # 29     ecut=    45.00 Ry     beta= 0.70
     Davidson diagonalization with overlap
     ethr =  6.41E-11,  avg # of iterations =  3.0

     total cpu time spent up to now is     2935.4 secs

     total energy              =   -5168.99524811 Ry
     Harris-Foulkes estimate   =   -5168.99524805 Ry
     estimated scf accuracy    <       0.00000005 Ry

     total magnetization       =     3.00 Bohr mag/cell
     absolute magnetization    =     3.08 Bohr mag/cell

     iteration # 30     ecut=    45.00 Ry     beta= 0.70
     Davidson diagonalization with overlap
     ethr =  3.33E-11,  avg # of iterations =  2.0

     total cpu time spent up to now is     3031.5 secs

     total energy              =   -5168.99524806 Ry
     Harris-Foulkes estimate   =   -5168.99524812 Ry
     estimated scf accuracy    <       0.00000003 Ry

     total magnetization       =     3.00 Bohr mag/cell
     absolute magnetization    =     3.08 Bohr mag/cell

     iteration # 31     ecut=    45.00 Ry     beta= 0.70
     Davidson diagonalization with overlap
     ethr =  1.97E-11,  avg # of iterations =  2.5

     total cpu time spent up to now is     3127.7 secs

     total energy              =   -5168.99524804 Ry
     Harris-Foulkes estimate   =   -5168.99524806 Ry
     estimated scf accuracy    <       0.00000001 Ry

     total magnetization       =     3.00 Bohr mag/cell
     absolute magnetization    =     3.08 Bohr mag/cell

     iteration # 32     ecut=    45.00 Ry     beta= 0.70
     Davidson diagonalization with overlap
     ethr =  7.67E-12,  avg # of iterations =  2.0
 
     Magnetic moment per site:
     atom:    1    charge:    9.5807    magn:    0.0870    constr:    0.0000
     atom:    2    charge:    9.5810    magn:    0.0865    constr:    0.0000
     atom:    3    charge:    9.5811    magn:    0.0865    constr:    0.0000
     atom:    4    charge:    9.5811    magn:    0.0864    constr:    0.0000
     atom:    5    charge:    9.5810    magn:    0.0865    constr:    0.0000
     atom:    6    charge:    9.5807    magn:    0.0870    constr:    0.0000
     atom:    7    charge:    9.5811    magn:    0.0863    constr:    0.0000
     atom:    8    charge:   12.3521    magn:   -0.0040    constr:    0.0000
     atom:    9    charge:    9.5810    magn:    0.0867    constr:    0.0000
     atom:   10    charge:    9.5811    magn:    0.0863    constr:    0.0000
     atom:   11    charge:    9.5810    magn:    0.0865    constr:    0.0000
     atom:   12    charge:    9.5811    magn:    0.0864    constr:    0.0000
     atom:   13    charge:    9.5809    magn:    0.0867    constr:    0.0000

     total cpu time spent up to now is     3218.4 secs

     End of self-consistent calculation

 ------ SPIN UP ------------


          k = 0.0000 0.0000 0.0000 (163015 PWs)   bands (ev):

   -27.4498 -27.4497 -27.4493 -27.4490 -27.4489 -16.1943  -9.7315  -9.7315
    -9.7313  -8.4571  -8.4568  -8.4545  -8.4527  -8.4520  -8.4343  -8.4334
    -8.4323  -8.4311  -8.2467  -8.2467  -8.2466  -8.1749  -8.1470  -8.1466
    -8.1465  -8.1459  -7.9464  -7.9463  -7.9461  -7.8227  -7.8220  -7.8209
    -7.8200  -7.8195  -7.6170  -7.6170  -7.6163  -7.6160  -7.6158  -7.4689
    -7.4685  -7.4681  -7.4678  -7.4674  -7.4469  -7.4464  -7.4462  -7.2640
    -7.2624  -7.2613  -7.2600  -7.1298  -7.1293  -7.1285  -7.1274  -7.1268
    -7.0451  -7.0449  -7.0448  -7.0391  -7.0381  -7.0373  -7.0360  -6.8394
    -6.8394  -6.8392  -6.4061  -6.4058  -6.4053  -5.7049  -4.0090  -4.0064
    -4.0001  -3.9954  -3.9927  -2.7840  -2.7839  -2.7838  -1.8656  -1.8652
    -1.8651  -1.3900  -1.3867  -1.3839  -1.3798  -0.7494  -0.1275  -0.1262
    -0.1063

     occupation numbers 
     1.0000   1.0000   1.0000   1.0000   1.0000   1.0000   1.0000   1.0000
     1.0000   1.0000   1.0000   1.0000   1.0000   1.0000   1.0000   1.0000
     1.0000   1.0000   1.0000   1.0000   1.0000   1.0000   1.0000   1.0000
     1.0000   1.0000   1.0000   1.0000   1.0000   1.0000   1.0000   1.0000
     1.0000   1.0000   1.0000   1.0000   1.0000   1.0000   1.0000   1.0000
     1.0000   1.0000   1.0000   1.0000   1.0000   1.0000   1.0000   1.0000
     1.0000   1.0000   1.0000   1.0000   1.0000   1.0000   1.0000   1.0000
     1.0000   1.0000   1.0000   1.0000   1.0000   1.0000   1.0000   1.0000
     1.0000   1.0000   1.0000   1.0000   1.0000   1.0000   1.0000   1.0000
     1.0000   1.0000   1.0000   0.0000   0.0000   0.0000   0.0000   0.0000
     0.0000   0.0000   0.0000   0.0000   0.0000   0.0000   0.0000   0.0000
     0.0000

 ------ SPIN DOWN ----------


          k = 0.0000 0.0000 0.0000 (163015 PWs)   bands (ev):

   -27.4495 -27.4495 -27.4495 -27.4494 -27.4494 -16.1810  -9.6633  -9.6631
    -9.6628  -8.3849  -8.3843  -8.3841  -8.3836  -8.3833  -8.3679  -8.3676
    -8.3673  -8.3672  -8.1612  -8.1611  -8.1610  -8.0733  -8.0732  -8.0730
    -8.0728  -8.0477  -7.8590  -7.8589  -7.8586  -7.7547  -7.7543  -7.7542
    -7.7539  -7.7537  -7.5563  -7.5561  -7.5559  -7.5558  -7.5554  -7.4214
    -7.4209  -7.4203  -7.4191  -7.4191  -7.4060  -7.4057  -7.4056  -7.2004
    -7.2000  -7.1997  -7.1993  -7.0713  -7.0711  -7.0706  -7.0700  -7.0697
    -6.9909  -6.9908  -6.9907  -6.9784  -6.9783  -6.9781  -6.9780  -6.7907
    -6.7906  -6.7906  -6.2810  -6.2809  -6.2808  -5.5541  -3.7717  -3.7709
    -3.7695  -3.7677  -3.7668  -2.6317  -2.6317  -2.6316  -1.6608  -1.6608
    -1.6604  -1.1260  -1.1239  -1.1224  -1.1209  -0.6150  -0.0271   0.0185
     0.0196

     occupation numbers 
     1.0000   1.0000   1.0000   1.0000   1.0000   1.0000   1.0000   1.0000
     1.0000   1.0000   1.0000   1.0000   1.0000   1.0000   1.0000   1.0000
     1.0000   1.0000   1.0000   1.0000   1.0000   1.0000   1.0000   1.0000
     1.0000   1.0000   1.0000   1.0000   1.0000   1.0000   1.0000   1.0000
     1.0000   1.0000   1.0000   1.0000   1.0000   1.0000   1.0000   1.0000
     1.0000   1.0000   1.0000   1.0000   1.0000   1.0000   1.0000   1.0000
     1.0000   1.0000   1.0000   1.0000   1.0000   1.0000   1.0000   1.0000
     1.0000   1.0000   1.0000   1.0000   1.0000   1.0000   1.0000   1.0000
     1.0000   1.0000   1.0000   1.0000   1.0000   1.0000   0.4599   0.4391
     0.4045   0.3587   0.3378   0.0000   0.0000   0.0000   0.0000   0.0000
     0.0000   0.0000   0.0000   0.0000   0.0000   0.0000   0.0000   0.0000
     0.0000

     the Fermi energy is    -3.7732 ev

!    total energy              =   -5168.99524793 Ry
     Harris-Foulkes estimate   =   -5168.99524804 Ry
     estimated scf accuracy    <          7.4E-09 Ry

     total all-electron energy =   -170648.045909 Ry

     The total energy is the sum of the following terms:

     one-electron contribution =   -4625.86756703 Ry
     hartree contribution      =    2404.78123346 Ry
     xc contribution           =    -459.73941114 Ry
     ewald contribution        =    1418.34733662 Ry
     one-center paw contrib.   =   -3906.51449997 Ry
      -> PAW hartree energy AE =      66.78016806 Ry
      -> PAW hartree energy PS =     -66.63256482 Ry
      -> PAW xc energy AE      =    -297.85714900 Ry
      -> PAW xc energy PS      =      35.21550066 Ry
      -> total E_H with PAW    =    2404.92883670 Ry
      -> total E_XC with PAW   =    -722.38105947 Ry
     smearing contrib. (-TS)   =      -0.00233987 Ry

     total magnetization       =     3.00 Bohr mag/cell
     absolute magnetization    =     3.08 Bohr mag/cell

     convergence has been achieved in  32 iterations

     Writing output data file ./tmp/ag12Bic.save/
 
     init_run     :     54.53s CPU     56.88s WALL (       1 calls)
     electrons    :   3049.52s CPU   3157.77s WALL (       1 calls)

     Called by init_run:
     wfcinit      :     15.31s CPU     15.53s WALL (       1 calls)
     wfcinit:atom :      0.10s CPU      0.14s WALL (       2 calls)
     wfcinit:wfcr :     14.96s CPU     15.08s WALL (       2 calls)
     potinit      :     10.91s CPU     11.41s WALL (       1 calls)
     hinit0       :      4.23s CPU      4.38s WALL (       1 calls)

     Called by electrons:
     c_bands      :    933.11s CPU    944.56s WALL (      32 calls)
     sum_band     :   1247.33s CPU   1295.69s WALL (      32 calls)
     v_of_rho     :    232.29s CPU    236.83s WALL (      33 calls)
     v_h          :     14.97s CPU     15.03s WALL (      33 calls)
     v_xc         :    217.32s CPU    221.80s WALL (      33 calls)
     newd         :    425.65s CPU    467.48s WALL (      33 calls)
     PAW_pot      :     42.47s CPU     42.87s WALL (      33 calls)
     mix_rho      :    149.75s CPU    152.08s WALL (      32 calls)

     Called by c_bands:
     init_us_2    :      5.35s CPU      5.48s WALL (     130 calls)
     regterg      :    904.04s CPU    915.24s WALL (      64 calls)

     Called by sum_band:
     sum_band:bec :      0.04s CPU      0.05s WALL (      64 calls)
     addusdens    :   1016.86s CPU   1064.33s WALL (      32 calls)

     Called by *egterg:
     h_psi        :    739.33s CPU    742.16s WALL (     371 calls)
     s_psi        :     47.19s CPU     47.27s WALL (     371 calls)
     g_psi        :      1.51s CPU      1.52s WALL (     305 calls)
     rdiaghg      :      9.59s CPU     10.20s WALL (     369 calls)
     regterg:over :     43.13s CPU     43.21s WALL (     305 calls)
     regterg:upda :     37.62s CPU     38.16s WALL (     305 calls)
     regterg:last :     12.61s CPU     12.64s WALL (      64 calls)
     rdiaghg:chol :      0.35s CPU      0.36s WALL (     369 calls)
     rdiaghg:inve :      0.28s CPU      0.28s WALL (     369 calls)
     rdiaghg:para :      0.83s CPU      0.84s WALL (     738 calls)

     Called by h_psi:
     h_psi:calbec :     33.98s CPU     34.07s WALL (     371 calls)
     vloc_psi     :    655.88s CPU    658.50s WALL (     371 calls)
     add_vuspsi   :     46.24s CPU     46.35s WALL (     371 calls)

     General routines
     calbec       :     45.53s CPU     45.65s WALL (     435 calls)
     fft          :    229.59s CPU    230.43s WALL (     686 calls)
     ffts         :     74.96s CPU     75.26s WALL (     905 calls)
     fftw         :    551.33s CPU    553.68s WALL (   15784 calls)
     interpolate  :     31.90s CPU     32.09s WALL (      66 calls)
 
     Parallel routines
     fft_scatt_xy :    129.63s CPU    130.22s WALL (   17375 calls)
     fft_scatt_yz :    263.03s CPU    264.01s WALL (   17375 calls)

     PAW routines
     PAW_pot      :     42.47s CPU     42.87s WALL (      33 calls)
 
     PWSCF        :  51m49.37s CPU  53m42.42s WALL

 
   This run was terminated on:   2:16:15   4Jun2020            

=------------------------------------------------------------------------------=
   JOB DONE.
=------------------------------------------------------------------------------=
