
     Program PWSCF v.6.5 starts on  5Jun2020 at 18:19:29 

     This program is part of the open-source Quantum ESPRESSO suite
     for quantum simulation of materials; please cite
         "P. Giannozzi et al., J. Phys.:Condens. Matter 21 395502 (2009);
         "P. Giannozzi et al., J. Phys.:Condens. Matter 29 465901 (2017);
          URL http://www.quantum-espresso.org", 
     in publications or presentations arising from this work. More details at
     http://www.quantum-espresso.org/quote

     Parallel version (MPI & OpenMP), running on      24 processor cores
     Number of MPI processes:                24
     Threads/MPI process:                     1

     MPI processes distributed on     1 nodes
     R & G space division:  proc/nbgrp/npool/nimage =      24
     Waiting for input...
     Reading input from standard input

     Current dimensions of program PWSCF are:
     Max number of different atomic species (ntypx) = 10
     Max number of k-points (npk) =  40000
     Max angular momentum in pseudopotentials (lmaxx) =  3
               file Ag.pbe-dn-kjpaw_psl.0.1.UPF: wavefunction(s)  5S 5P 4D renormalized
               file Bi.pbe-dn-kjpaw_psl.1.0.0.UPF: wavefunction(s)  6P 5D renormalized

     gamma-point specific algorithms are used

     Subspace diagonalization in iterative solution of the eigenvalue problem:
     one sub-group per band group will be used
     scalapack distributed-memory algorithm (size of sub-group:  4*  4 procs)

 
     Parallelization info
     --------------------
     sticks:   dense  smooth     PW     G-vecs:    dense   smooth      PW
     Min        3016    1192    297               610644   151980   18986
     Max        3017    1194    300               610652   151990   18998
     Sum       72385   28649   7153             14655511  3647655  455863
 


     bravais-lattice index     =            1
     lattice parameter (alat)  =      30.0000  a.u.
     unit-cell volume          =   27000.0000 (a.u.)^3
     number of atoms/cell      =           13
     number of atomic types    =            2
     number of electrons       =       147.00
     number of Kohn-Sham states=           89
     kinetic-energy cutoff     =     100.0000  Ry
     charge density cutoff     =    1011.0000  Ry
     convergence threshold     =      1.0E-08
     mixing beta               =       0.7000
     number of iterations used =            8  local-TF  mixing
     Exchange-correlation= SLA PW PBX PBC
                           (   1   4   3   4   0   0   0)

     celldm(1)=  30.000000  celldm(2)=   0.000000  celldm(3)=   0.000000
     celldm(4)=   0.000000  celldm(5)=   0.000000  celldm(6)=   0.000000

     crystal axes: (cart. coord. in units of alat)
               a(1) = (   1.000000   0.000000   0.000000 )  
               a(2) = (   0.000000   1.000000   0.000000 )  
               a(3) = (   0.000000   0.000000   1.000000 )  

     reciprocal axes: (cart. coord. in units 2 pi/alat)
               b(1) = (  1.000000  0.000000  0.000000 )  
               b(2) = (  0.000000  1.000000  0.000000 )  
               b(3) = (  0.000000  0.000000  1.000000 )  


     PseudoPot. # 1 for Ag read from file:
     ../../pseudo/Ag.pbe-dn-kjpaw_psl.0.1.UPF
     MD5 check sum: 2edc915f30f03476250949c796a6a376
     Pseudo is Projector augmented-wave + core cor, Zval = 11.0
     Generated using "atomic" code by A. Dal Corso v.5.0.2 svn rev. 9415
     Shape of augmentation charge: PSQ
     Using radial grid of 1237 points,  6 beta functions with: 
                l(1) =   0
                l(2) =   0
                l(3) =   1
                l(4) =   1
                l(5) =   2
                l(6) =   2
     Q(r) pseudized with 0 coefficients 


     PseudoPot. # 2 for Bi read from file:
     ../../pseudo/Bi.pbe-dn-kjpaw_psl.1.0.0.UPF
     MD5 check sum: 266ded784ae3bc462508ed03f0f37963
     Pseudo is Projector augmented-wave + core cor, Zval = 15.0
     Generated using "atomic" code by A. Dal Corso v.6.2.2
     Shape of augmentation charge: PSQ
     Using radial grid of 1283 points,  6 beta functions with: 
                l(1) =   0
                l(2) =   0
                l(3) =   1
                l(4) =   1
                l(5) =   2
                l(6) =   2
     Q(r) pseudized with 0 coefficients 


     atomic species   valence    mass     pseudopotential
        Ag            11.00   107.87000     Ag( 1.00)
        Bi            15.00   208.98000     Bi( 1.00)

     Starting magnetic structure 
     atomic species   magnetization
        Ag           0.700
        Bi           0.000

     No symmetry found


                                    s                        frac. trans.

      isym =  1     identity                                     

 cryst.   s( 1) = (     1          0          0      )
                  (     0          1          0      )
                  (     0          0          1      )

 cart.    s( 1) = (  1.0000000  0.0000000  0.0000000 )
                  (  0.0000000  1.0000000  0.0000000 )
                  (  0.0000000  0.0000000  1.0000000 )


     point group C_1 (1)    
     there are  1 classes
     the character table:

       E    
A      1.00

     the symmetry operations in each class and the name of the first element:

     E        1
          identity                                               

   Cartesian axes

     site n.     atom                  positions (alat units)
         1           Ag  tau(   1) = (   0.1451756   0.1419011   0.2862562  )
         2           Ag  tau(   2) = (   0.1763615   0.3138643   0.3627289  )
         3           Ag  tau(   3) = (   0.4388654   0.2191273   0.2308980  )
         4           Ag  tau(   4) = (   0.3127132   0.1806092   0.3687629  )
         5           Ag  tau(   5) = (   0.3492308   0.2041399   0.0631595  )
         6           Ag  tau(   6) = (   0.3804237   0.3760970   0.1396875  )
         7           Ag  tau(   7) = (   0.1677285   0.1564006   0.0973732  )
         8           Bi  tau(   8) = (   0.2627855   0.2589986   0.2129311  )
         9           Ag  tau(   9) = (   0.2180991   0.4346439   0.2211261  )
        10           Ag  tau(  10) = (   0.3578268   0.3616059   0.3285138  )
        11           Ag  tau(  11) = (   0.0866983   0.2988510   0.1949738  )
        12           Ag  tau(  12) = (   0.2128451   0.3373894   0.0571239  )
        13           Ag  tau(  13) = (   0.3074386   0.0833371   0.2048065  )

   Crystallographic axes

     site n.     atom                  positions (cryst. coord.)
         1           Ag  tau(   1) = (  0.1451756  0.1419011  0.2862562  )
         2           Ag  tau(   2) = (  0.1763615  0.3138643  0.3627289  )
         3           Ag  tau(   3) = (  0.4388654  0.2191273  0.2308980  )
         4           Ag  tau(   4) = (  0.3127132  0.1806092  0.3687629  )
         5           Ag  tau(   5) = (  0.3492308  0.2041399  0.0631595  )
         6           Ag  tau(   6) = (  0.3804237  0.3760970  0.1396875  )
         7           Ag  tau(   7) = (  0.1677285  0.1564006  0.0973732  )
         8           Bi  tau(   8) = (  0.2627855  0.2589986  0.2129311  )
         9           Ag  tau(   9) = (  0.2180991  0.4346439  0.2211261  )
        10           Ag  tau(  10) = (  0.3578268  0.3616059  0.3285138  )
        11           Ag  tau(  11) = (  0.0866983  0.2988510  0.1949738  )
        12           Ag  tau(  12) = (  0.2128451  0.3373894  0.0571239  )
        13           Ag  tau(  13) = (  0.3074386  0.0833371  0.2048065  )

     number of k points=     1  Fermi-Dirac smearing, width (Ry)=  0.0007
                       cart. coord. in units 2pi/alat
        k(    1) = (   0.0000000   0.0000000   0.0000000), wk =   1.0000000

                       cryst. coord.
        k(    1) = (   0.0000000   0.0000000   0.0000000), wk =   1.0000000

     Dense  grid:  7327756 G-vectors     FFT dimensions: ( 320, 320, 320)

     Smooth grid:  1823828 G-vectors     FFT dimensions: ( 192, 192, 192)

     Dynamical RAM for                 wfc:      12.90 MB

     Dynamical RAM for     wfc (w. buffer):      38.70 MB

     Dynamical RAM for           str. fact:       9.32 MB

     Dynamical RAM for           local pot:       0.00 MB

     Dynamical RAM for          nlocal pot:      33.91 MB

     Dynamical RAM for                qrad:      24.33 MB

     Dynamical RAM for          rho,v,vnew:      93.58 MB

     Dynamical RAM for               rhoin:      31.19 MB

     Dynamical RAM for            rho*nmix:     149.08 MB

     Dynamical RAM for           G-vectors:      18.05 MB

     Dynamical RAM for          h,s,v(r/c):       0.18 MB

     Dynamical RAM for          <psi|beta>:       0.16 MB

     Dynamical RAM for                 psi:      51.59 MB

     Dynamical RAM for                hpsi:      51.59 MB

     Dynamical RAM for                spsi:      51.59 MB

     Dynamical RAM for      wfcinit/wfcrot:      34.23 MB

     Dynamical RAM for           addusdens:     927.12 MB

     Estimated static dynamical RAM per process >     477.76 MB

     Estimated max dynamical RAM per process >       1.37 GB

     Estimated total dynamical RAM >      32.93 GB
     Generating pointlists ...
     new r_m :   0.0748 (alat units)  2.2451 (a.u.) for type    1
     new r_m :   0.0748 (alat units)  2.2451 (a.u.) for type    2

     Check: negative core charge=   -0.000001

     Initial potential from superposition of free atoms

     starting charge  146.99440, renormalised to  147.00000
     Starting wfcs are  117 randomized atomic wfcs
     Checking if some PAW data can be deallocated... 
       PAW data deallocated on    2 nodes for type:  1
       PAW data deallocated on   22 nodes for type:  2

     total cpu time spent up to now is       81.1 secs

     Self-consistent Calculation

     iteration #  1     ecut=   100.00 Ry     beta= 0.70
     Davidson diagonalization with overlap
     ethr =  1.00E-02,  avg # of iterations =  3.0

     total cpu time spent up to now is      212.5 secs

     total energy              =   -5168.10774272 Ry
     Harris-Foulkes estimate   =   -5161.99665619 Ry
     estimated scf accuracy    <       6.53706145 Ry

     total magnetization       =     7.00 Bohr mag/cell
     absolute magnetization    =     7.00 Bohr mag/cell

     iteration #  2     ecut=   100.00 Ry     beta= 0.70
     Davidson diagonalization with overlap
     ethr =  4.45E-03,  avg # of iterations =  1.0

     total cpu time spent up to now is      338.9 secs

     total energy              =   -5168.96396858 Ry
     Harris-Foulkes estimate   =   -5168.29965652 Ry
     estimated scf accuracy    <       0.86156761 Ry

     total magnetization       =     3.00 Bohr mag/cell
     absolute magnetization    =     3.33 Bohr mag/cell

     iteration #  3     ecut=   100.00 Ry     beta= 0.70
     Davidson diagonalization with overlap
     ethr =  5.86E-04,  avg # of iterations =  4.0

     total cpu time spent up to now is      469.9 secs

     total energy              =   -5169.01603585 Ry
     Harris-Foulkes estimate   =   -5169.02465280 Ry
     estimated scf accuracy    <       0.05457433 Ry

     total magnetization       =     3.00 Bohr mag/cell
     absolute magnetization    =     3.10 Bohr mag/cell

     iteration #  4     ecut=   100.00 Ry     beta= 0.70
     Davidson diagonalization with overlap
     ethr =  3.71E-05,  avg # of iterations = 10.0

     total cpu time spent up to now is      629.1 secs

     total energy              =   -5169.02652112 Ry
     Harris-Foulkes estimate   =   -5169.03240302 Ry
     estimated scf accuracy    <       0.02833423 Ry

     total magnetization       =     3.00 Bohr mag/cell
     absolute magnetization    =     3.04 Bohr mag/cell

     iteration #  5     ecut=   100.00 Ry     beta= 0.70
     Davidson diagonalization with overlap
     ethr =  1.93E-05,  avg # of iterations =  2.5

     total cpu time spent up to now is      758.4 secs

     total energy              =   -5169.02110490 Ry
     Harris-Foulkes estimate   =   -5169.02759331 Ry
     estimated scf accuracy    <       0.01743517 Ry

     total magnetization       =     3.00 Bohr mag/cell
     absolute magnetization    =     3.06 Bohr mag/cell

     iteration #  6     ecut=   100.00 Ry     beta= 0.70
     Davidson diagonalization with overlap
     ethr =  1.19E-05,  avg # of iterations = 10.0

     total cpu time spent up to now is      900.9 secs

     total energy              =   -5169.02119283 Ry
     Harris-Foulkes estimate   =   -5169.02235583 Ry
     estimated scf accuracy    <       0.01095489 Ry

     total magnetization       =     3.00 Bohr mag/cell
     absolute magnetization    =     3.10 Bohr mag/cell

     iteration #  7     ecut=   100.00 Ry     beta= 0.70
     Davidson diagonalization with overlap
     ethr =  7.45E-06,  avg # of iterations =  2.0

     total cpu time spent up to now is     1028.2 secs

     total energy              =   -5169.01771226 Ry
     Harris-Foulkes estimate   =   -5169.02149568 Ry
     estimated scf accuracy    <       0.00659748 Ry

     total magnetization       =     3.00 Bohr mag/cell
     absolute magnetization    =     3.09 Bohr mag/cell

     iteration #  8     ecut=   100.00 Ry     beta= 0.70
     Davidson diagonalization with overlap
     ethr =  4.49E-06,  avg # of iterations = 15.5

     total cpu time spent up to now is     1179.2 secs

     total energy              =   -5169.01915527 Ry
     Harris-Foulkes estimate   =   -5169.01840263 Ry
     estimated scf accuracy    <       0.00339745 Ry

     total magnetization       =     3.00 Bohr mag/cell
     absolute magnetization    =     3.08 Bohr mag/cell

     iteration #  9     ecut=   100.00 Ry     beta= 0.70
     Davidson diagonalization with overlap
     ethr =  2.31E-06,  avg # of iterations =  3.0

     total cpu time spent up to now is     1308.8 secs

     total energy              =   -5169.02103657 Ry
     Harris-Foulkes estimate   =   -5169.01923335 Ry
     estimated scf accuracy    <       0.00208004 Ry

     total magnetization       =     3.00 Bohr mag/cell
     absolute magnetization    =     3.08 Bohr mag/cell

     iteration # 10     ecut=   100.00 Ry     beta= 0.70
     Davidson diagonalization with overlap
     ethr =  1.41E-06,  avg # of iterations = 11.5

     total cpu time spent up to now is     1454.3 secs

     total energy              =   -5169.02198069 Ry
     Harris-Foulkes estimate   =   -5169.02116582 Ry
     estimated scf accuracy    <       0.00161903 Ry

     total magnetization       =     3.00 Bohr mag/cell
     absolute magnetization    =     3.08 Bohr mag/cell

     iteration # 11     ecut=   100.00 Ry     beta= 0.70
     Davidson diagonalization with overlap
     ethr =  1.10E-06,  avg # of iterations = 10.0

     total cpu time spent up to now is     1591.8 secs

     total energy              =   -5169.02289572 Ry
     Harris-Foulkes estimate   =   -5169.02207778 Ry
     estimated scf accuracy    <       0.00105001 Ry

     total magnetization       =     3.00 Bohr mag/cell
     absolute magnetization    =     3.08 Bohr mag/cell

     iteration # 12     ecut=   100.00 Ry     beta= 0.70
     Davidson diagonalization with overlap
     ethr =  7.14E-07,  avg # of iterations =  8.5

     total cpu time spent up to now is     1732.1 secs

     total energy              =   -5169.02392209 Ry
     Harris-Foulkes estimate   =   -5169.02292677 Ry
     estimated scf accuracy    <       0.00053465 Ry

     total magnetization       =     3.00 Bohr mag/cell
     absolute magnetization    =     3.08 Bohr mag/cell

     iteration # 13     ecut=   100.00 Ry     beta= 0.70
     Davidson diagonalization with overlap
     ethr =  3.64E-07,  avg # of iterations = 11.0

     total cpu time spent up to now is     1873.7 secs

     total energy              =   -5169.02409516 Ry
     Harris-Foulkes estimate   =   -5169.02397141 Ry
     estimated scf accuracy    <       0.00057024 Ry

     total magnetization       =     3.00 Bohr mag/cell
     absolute magnetization    =     3.08 Bohr mag/cell

     iteration # 14     ecut=   100.00 Ry     beta= 0.70
     Davidson diagonalization with overlap
     ethr =  3.64E-07,  avg # of iterations = 11.0

     total cpu time spent up to now is     2012.5 secs

     total energy              =   -5169.02429175 Ry
     Harris-Foulkes estimate   =   -5169.02416028 Ry
     estimated scf accuracy    <       0.00042038 Ry

     total magnetization       =     3.00 Bohr mag/cell
     absolute magnetization    =     3.08 Bohr mag/cell

     iteration # 15     ecut=   100.00 Ry     beta= 0.70
     Davidson diagonalization with overlap
     ethr =  2.86E-07,  avg # of iterations = 11.0

     total cpu time spent up to now is     2148.8 secs

     total energy              =   -5169.02427935 Ry
     Harris-Foulkes estimate   =   -5169.02429998 Ry
     estimated scf accuracy    <       0.00019608 Ry

     total magnetization       =     3.00 Bohr mag/cell
     absolute magnetization    =     3.08 Bohr mag/cell

     iteration # 16     ecut=   100.00 Ry     beta= 0.70
     Davidson diagonalization with overlap
     ethr =  1.33E-07,  avg # of iterations = 13.5

     total cpu time spent up to now is     2289.5 secs

     total energy              =   -5169.02429658 Ry
     Harris-Foulkes estimate   =   -5169.02428787 Ry
     estimated scf accuracy    <       0.00006198 Ry

     total magnetization       =     3.00 Bohr mag/cell
     absolute magnetization    =     3.08 Bohr mag/cell

     iteration # 17     ecut=   100.00 Ry     beta= 0.70
     Davidson diagonalization with overlap
     ethr =  4.22E-08,  avg # of iterations =  9.0

     total cpu time spent up to now is     2426.4 secs

     total energy              =   -5169.02435788 Ry
     Harris-Foulkes estimate   =   -5169.02430054 Ry
     estimated scf accuracy    <       0.00002305 Ry

     total magnetization       =     3.00 Bohr mag/cell
     absolute magnetization    =     3.08 Bohr mag/cell

     iteration # 18     ecut=   100.00 Ry     beta= 0.70
     Davidson diagonalization with overlap
     ethr =  1.57E-08,  avg # of iterations =  2.5

     total cpu time spent up to now is     2555.8 secs

     total energy              =   -5169.02440504 Ry
     Harris-Foulkes estimate   =   -5169.02435885 Ry
     estimated scf accuracy    <       0.00001195 Ry

     total magnetization       =     3.00 Bohr mag/cell
     absolute magnetization    =     3.08 Bohr mag/cell

     iteration # 19     ecut=   100.00 Ry     beta= 0.70
     Davidson diagonalization with overlap
     ethr =  8.13E-09,  avg # of iterations =  8.0

     total cpu time spent up to now is     2692.0 secs

     total energy              =   -5169.02441493 Ry
     Harris-Foulkes estimate   =   -5169.02440658 Ry
     estimated scf accuracy    <       0.00000643 Ry

     total magnetization       =     3.00 Bohr mag/cell
     absolute magnetization    =     3.08 Bohr mag/cell

     iteration # 20     ecut=   100.00 Ry     beta= 0.70
     Davidson diagonalization with overlap
     ethr =  4.37E-09,  avg # of iterations =  1.5

     total cpu time spent up to now is     2819.3 secs

     total energy              =   -5169.02442366 Ry
     Harris-Foulkes estimate   =   -5169.02441524 Ry
     estimated scf accuracy    <       0.00000338 Ry

     total magnetization       =     3.00 Bohr mag/cell
     absolute magnetization    =     3.08 Bohr mag/cell

     iteration # 21     ecut=   100.00 Ry     beta= 0.70
     Davidson diagonalization with overlap
     ethr =  2.30E-09,  avg # of iterations =  3.5

     total cpu time spent up to now is     2953.0 secs

     total energy              =   -5169.02442610 Ry
     Harris-Foulkes estimate   =   -5169.02442397 Ry
     estimated scf accuracy    <       0.00000127 Ry

     total magnetization       =     3.00 Bohr mag/cell
     absolute magnetization    =     3.08 Bohr mag/cell

     iteration # 22     ecut=   100.00 Ry     beta= 0.70
     Davidson diagonalization with overlap
     ethr =  8.63E-10,  avg # of iterations =  2.0

     total cpu time spent up to now is     3081.0 secs

     total energy              =   -5169.02442879 Ry
     Harris-Foulkes estimate   =   -5169.02442620 Ry
     estimated scf accuracy    <       0.00000039 Ry

     total magnetization       =     3.00 Bohr mag/cell
     absolute magnetization    =     3.08 Bohr mag/cell

     iteration # 23     ecut=   100.00 Ry     beta= 0.70
     Davidson diagonalization with overlap
     ethr =  2.67E-10,  avg # of iterations =  4.0

     total cpu time spent up to now is     3215.0 secs

     total energy              =   -5169.02443074 Ry
     Harris-Foulkes estimate   =   -5169.02442883 Ry
     estimated scf accuracy    <       0.00000018 Ry

     total magnetization       =     3.00 Bohr mag/cell
     absolute magnetization    =     3.08 Bohr mag/cell

     iteration # 24     ecut=   100.00 Ry     beta= 0.70
     Davidson diagonalization with overlap
     ethr =  1.22E-10,  avg # of iterations =  4.0

     total cpu time spent up to now is     3346.9 secs

     total energy              =   -5169.02443188 Ry
     Harris-Foulkes estimate   =   -5169.02443077 Ry
     estimated scf accuracy    <       0.00000007 Ry

     total magnetization       =     3.00 Bohr mag/cell
     absolute magnetization    =     3.08 Bohr mag/cell

     iteration # 25     ecut=   100.00 Ry     beta= 0.70
     Davidson diagonalization with overlap
     ethr =  4.94E-11,  avg # of iterations =  4.5

     total cpu time spent up to now is     3484.2 secs

     total energy              =   -5169.02443205 Ry
     Harris-Foulkes estimate   =   -5169.02443190 Ry
     estimated scf accuracy    <       0.00000004 Ry

     total magnetization       =     3.00 Bohr mag/cell
     absolute magnetization    =     3.08 Bohr mag/cell

     iteration # 26     ecut=   100.00 Ry     beta= 0.70
     Davidson diagonalization with overlap
     ethr =  2.39E-11,  avg # of iterations =  4.5

     total cpu time spent up to now is     3614.2 secs

     total energy              =   -5169.02443212 Ry
     Harris-Foulkes estimate   =   -5169.02443206 Ry
     estimated scf accuracy    <       0.00000002 Ry

     total magnetization       =     3.00 Bohr mag/cell
     absolute magnetization    =     3.08 Bohr mag/cell

     iteration # 27     ecut=   100.00 Ry     beta= 0.70
     Davidson diagonalization with overlap
     ethr =  1.67E-11,  avg # of iterations =  4.0

     total cpu time spent up to now is     3745.8 secs

     total energy              =   -5169.02443221 Ry
     Harris-Foulkes estimate   =   -5169.02443212 Ry
     estimated scf accuracy    <       0.00000002 Ry

     total magnetization       =     3.00 Bohr mag/cell
     absolute magnetization    =     3.08 Bohr mag/cell

     iteration # 28     ecut=   100.00 Ry     beta= 0.70
     Davidson diagonalization with overlap
     ethr =  1.40E-11,  avg # of iterations =  3.5

     total cpu time spent up to now is     3889.0 secs

     total energy              =   -5169.02443224 Ry
     Harris-Foulkes estimate   =   -5169.02443223 Ry
     estimated scf accuracy    <       0.00000002 Ry

     total magnetization       =     3.00 Bohr mag/cell
     absolute magnetization    =     3.08 Bohr mag/cell

     iteration # 29     ecut=   100.00 Ry     beta= 0.70
     Davidson diagonalization with overlap
     ethr =  1.21E-11,  avg # of iterations =  3.0
 
     Magnetic moment per site:
     atom:    1    charge:    9.5807    magn:    0.0877    constr:    0.0000
     atom:    2    charge:    9.5814    magn:    0.0867    constr:    0.0000
     atom:    3    charge:    9.5819    magn:    0.0856    constr:    0.0000
     atom:    4    charge:    9.5815    magn:    0.0865    constr:    0.0000
     atom:    5    charge:    9.5813    magn:    0.0867    constr:    0.0000
     atom:    6    charge:    9.5807    magn:    0.0877    constr:    0.0000
     atom:    7    charge:    9.5810    magn:    0.0872    constr:    0.0000
     atom:    8    charge:   12.3514    magn:   -0.0040    constr:    0.0000
     atom:    9    charge:    9.5818    magn:    0.0858    constr:    0.0000
     atom:   10    charge:    9.5811    magn:    0.0872    constr:    0.0000
     atom:   11    charge:    9.5819    magn:    0.0856    constr:    0.0000
     atom:   12    charge:    9.5815    magn:    0.0865    constr:    0.0000
     atom:   13    charge:    9.5818    magn:    0.0858    constr:    0.0000

     total cpu time spent up to now is     4018.2 secs

     End of self-consistent calculation

 ------ SPIN UP ------------


          k = 0.0000 0.0000 0.0000 (227932 PWs)   bands (ev):

   -26.8625 -26.8622 -26.8620 -26.8616 -26.8613 -15.6032  -9.1391  -9.1390
    -9.1387  -7.8655  -7.8649  -7.8631  -7.8602  -7.8594  -7.8430  -7.8414
    -7.8397  -7.8391  -7.6550  -7.6548  -7.6544  -7.5830  -7.5552  -7.5549
    -7.5545  -7.5537  -7.3544  -7.3542  -7.3539  -7.2312  -7.2302  -7.2294
    -7.2279  -7.2267  -7.0259  -7.0252  -7.0247  -7.0238  -7.0235  -6.8775
    -6.8771  -6.8763  -6.8755  -6.8747  -6.8562  -6.8541  -6.8535  -6.6722
    -6.6706  -6.6696  -6.6674  -6.5385  -6.5372  -6.5363  -6.5352  -6.5345
    -6.4536  -6.4524  -6.4523  -6.4476  -6.4459  -6.4453  -6.4434  -6.2478
    -6.2475  -6.2464  -5.8148  -5.8133  -5.8126  -5.1129  -3.4178  -3.4134
    -3.4097  -3.4020  -3.3978  -2.1882  -2.1880  -2.1866  -1.2723  -1.2708
    -1.2681  -0.7973  -0.7920  -0.7860  -0.7853  -0.1983   0.4448   0.4457
     0.5071

     occupation numbers 
     1.0000   1.0000   1.0000   1.0000   1.0000   1.0000   1.0000   1.0000
     1.0000   1.0000   1.0000   1.0000   1.0000   1.0000   1.0000   1.0000
     1.0000   1.0000   1.0000   1.0000   1.0000   1.0000   1.0000   1.0000
     1.0000   1.0000   1.0000   1.0000   1.0000   1.0000   1.0000   1.0000
     1.0000   1.0000   1.0000   1.0000   1.0000   1.0000   1.0000   1.0000
     1.0000   1.0000   1.0000   1.0000   1.0000   1.0000   1.0000   1.0000
     1.0000   1.0000   1.0000   1.0000   1.0000   1.0000   1.0000   1.0000
     1.0000   1.0000   1.0000   1.0000   1.0000   1.0000   1.0000   1.0000
     1.0000   1.0000   1.0000   1.0000   1.0000   1.0000   1.0000   1.0000
     1.0000   1.0000   1.0000   0.0000   0.0000   0.0000   0.0000   0.0000
     0.0000   0.0000   0.0000   0.0000   0.0000   0.0000   0.0000   0.0000
     0.0000

 ------ SPIN DOWN ----------


          k = 0.0000 0.0000 0.0000 (227932 PWs)   bands (ev):

   -26.8622 -26.8621 -26.8621 -26.8620 -26.8619 -15.5901  -9.0710  -9.0707
    -9.0703  -7.7933  -7.7926  -7.7921  -7.7915  -7.7908  -7.7764  -7.7757
    -7.7752  -7.7750  -7.5695  -7.5693  -7.5687  -7.4815  -7.4814  -7.4811
    -7.4807  -7.4556  -7.2671  -7.2668  -7.2663  -7.1630  -7.1628  -7.1623
    -7.1618  -7.1613  -6.9647  -6.9644  -6.9643  -6.9637  -6.9633  -6.8296
    -6.8294  -6.8279  -6.8276  -6.8266  -6.8149  -6.8136  -6.8131  -6.6086
    -6.6080  -6.6077  -6.6071  -6.4797  -6.4790  -6.4784  -6.4777  -6.4774
    -6.3993  -6.3983  -6.3982  -6.3865  -6.3863  -6.3861  -6.3854  -6.1989
    -6.1986  -6.1981  -5.6888  -5.6886  -5.6884  -4.9620  -3.1793  -3.1781
    -3.1759  -3.1748  -3.1733  -2.0347  -2.0346  -2.0342  -1.0664  -1.0653
    -1.0640  -0.5299  -0.5274  -0.5256  -0.5237  -0.0623   0.6141   0.6168
     0.6955

     occupation numbers 
     1.0000   1.0000   1.0000   1.0000   1.0000   1.0000   1.0000   1.0000
     1.0000   1.0000   1.0000   1.0000   1.0000   1.0000   1.0000   1.0000
     1.0000   1.0000   1.0000   1.0000   1.0000   1.0000   1.0000   1.0000
     1.0000   1.0000   1.0000   1.0000   1.0000   1.0000   1.0000   1.0000
     1.0000   1.0000   1.0000   1.0000   1.0000   1.0000   1.0000   1.0000
     1.0000   1.0000   1.0000   1.0000   1.0000   1.0000   1.0000   1.0000
     1.0000   1.0000   1.0000   1.0000   1.0000   1.0000   1.0000   1.0000
     1.0000   1.0000   1.0000   1.0000   1.0000   1.0000   1.0000   1.0000
     1.0000   1.0000   1.0000   1.0000   1.0000   1.0000   0.4777   0.4448
     0.3894   0.3612   0.3269   0.0000   0.0000   0.0000   0.0000   0.0000
     0.0000   0.0000   0.0000   0.0000   0.0000   0.0000   0.0000   0.0000
     0.0000

     the Fermi energy is    -3.1802 ev

!    total energy              =   -5169.02443210 Ry
     Harris-Foulkes estimate   =   -5169.02443225 Ry
     estimated scf accuracy    <          8.1E-09 Ry

     total all-electron energy =   -170648.075094 Ry

     The total energy is the sum of the following terms:

     one-electron contribution =   -3713.59513349 Ry
     hartree contribution      =    1951.86282381 Ry
     xc contribution           =    -459.74952545 Ry
     ewald contribution        =     958.99408003 Ry
     one-center paw contrib.   =   -3906.53434338 Ry
      -> PAW hartree energy AE =      66.75519781 Ry
      -> PAW hartree energy PS =     -66.60796026 Ry
      -> PAW xc energy AE      =    -297.85716751 Ry
      -> PAW xc energy PS      =      35.21472738 Ry
      -> total E_H with PAW    =    1952.01006137 Ry
      -> total E_XC with PAW   =    -722.39196559 Ry
     smearing contrib. (-TS)   =      -0.00233362 Ry

     total magnetization       =     3.00 Bohr mag/cell
     absolute magnetization    =     3.08 Bohr mag/cell

     convergence has been achieved in  29 iterations

     Writing output data file ./tmp/ag12Bic.save/
 
     init_run     :     73.73s CPU     77.00s WALL (       1 calls)
     electrons    :   3790.75s CPU   3938.41s WALL (       1 calls)

     Called by init_run:
     wfcinit      :     20.75s CPU     21.03s WALL (       1 calls)
     wfcinit:atom :      0.13s CPU      0.18s WALL (       2 calls)
     wfcinit:wfcr :     20.26s CPU     20.40s WALL (       2 calls)
     potinit      :     14.78s CPU     15.50s WALL (       1 calls)
     hinit0       :      5.26s CPU      5.45s WALL (       1 calls)

     Called by electrons:
     c_bands      :   1253.23s CPU   1266.57s WALL (      29 calls)
     sum_band     :   1472.32s CPU   1533.17s WALL (      29 calls)
     v_of_rho     :    303.93s CPU    319.06s WALL (      30 calls)
     v_h          :     19.60s CPU     20.90s WALL (      30 calls)
     v_xc         :    284.33s CPU    298.16s WALL (      30 calls)
     newd         :    527.76s CPU    580.61s WALL (      30 calls)
     PAW_pot      :     38.26s CPU     39.46s WALL (      30 calls)
     mix_rho      :    175.22s CPU    178.82s WALL (      29 calls)

     Called by c_bands:
     init_us_2    :      6.95s CPU      7.04s WALL (     118 calls)
     regterg      :   1216.52s CPU   1229.67s WALL (      58 calls)

     Called by sum_band:
     sum_band:bec :      0.03s CPU      0.03s WALL (      58 calls)
     addusdens    :   1174.70s CPU   1233.07s WALL (      29 calls)

     Called by *egterg:
     h_psi        :    981.36s CPU    983.98s WALL (     423 calls)
     s_psi        :     63.30s CPU     63.39s WALL (     423 calls)
     g_psi        :      2.13s CPU      2.14s WALL (     363 calls)
     rdiaghg      :     11.76s CPU     12.46s WALL (     421 calls)
     regterg:over :     65.27s CPU     65.38s WALL (     363 calls)
     regterg:upda :     61.87s CPU     62.45s WALL (     363 calls)
     regterg:last :     16.50s CPU     16.53s WALL (      58 calls)
     rdiaghg:chol :      0.41s CPU      0.42s WALL (     421 calls)
     rdiaghg:inve :      0.33s CPU      0.34s WALL (     421 calls)
     rdiaghg:para :      1.02s CPU      1.03s WALL (     842 calls)

     Called by h_psi:
     h_psi:calbec :     49.79s CPU     49.88s WALL (     423 calls)
     vloc_psi     :    861.03s CPU    863.42s WALL (     423 calls)
     add_vuspsi   :     66.26s CPU     66.38s WALL (     423 calls)

     General routines
     calbec       :     64.50s CPU     64.63s WALL (     481 calls)
     fft          :    309.74s CPU    316.38s WALL (     623 calls)
     ffts         :     79.02s CPU     79.30s WALL (     726 calls)
     fftw         :    679.72s CPU    681.90s WALL (   15040 calls)
     interpolate  :     39.94s CPU     42.02s WALL (      60 calls)
 
     Parallel routines
     fft_scatt_xy :    171.55s CPU    172.45s WALL (   16389 calls)
     fft_scatt_yz :    341.25s CPU    343.46s WALL (   16389 calls)

     PAW routines
     PAW_pot      :     38.26s CPU     39.46s WALL (      30 calls)
 
     PWSCF        :      1h 4m CPU      1h 7m WALL

 
   This run was terminated on:  19:26:32   5Jun2020            

=------------------------------------------------------------------------------=
   JOB DONE.
=------------------------------------------------------------------------------=
