
     Program PWSCF v.6.5 starts on  4Jun2020 at 23:44:35 

     This program is part of the open-source Quantum ESPRESSO suite
     for quantum simulation of materials; please cite
         "P. Giannozzi et al., J. Phys.:Condens. Matter 21 395502 (2009);
         "P. Giannozzi et al., J. Phys.:Condens. Matter 29 465901 (2017);
          URL http://www.quantum-espresso.org", 
     in publications or presentations arising from this work. More details at
     http://www.quantum-espresso.org/quote

     Parallel version (MPI & OpenMP), running on      24 processor cores
     Number of MPI processes:                24
     Threads/MPI process:                     1

     MPI processes distributed on     1 nodes
     R & G space division:  proc/nbgrp/npool/nimage =      24
     Waiting for input...
     Reading input from standard input

     Current dimensions of program PWSCF are:
     Max number of different atomic species (ntypx) = 10
     Max number of k-points (npk) =  40000
     Max angular momentum in pseudopotentials (lmaxx) =  3
               file Ag.pbe-dn-kjpaw_psl.0.1.UPF: wavefunction(s)  5S 5P 4D renormalized
               file Bi.pbe-dn-kjpaw_psl.1.0.0.UPF: wavefunction(s)  6P 5D renormalized

     gamma-point specific algorithms are used

     Subspace diagonalization in iterative solution of the eigenvalue problem:
     one sub-group per band group will be used
     scalapack distributed-memory algorithm (size of sub-group:  4*  4 procs)

 
     Parallelization info
     --------------------
     sticks:   dense  smooth     PW     G-vecs:    dense   smooth      PW
     Min        1657     655    164               249073    61980    7748
     Max        1660     658    166               249084    61988    7756
     Sum       39813   15745   3945              5977853  1487637  186023
 


     bravais-lattice index     =            1
     lattice parameter (alat)  =      30.0000  a.u.
     unit-cell volume          =   27000.0000 (a.u.)^3
     number of atoms/cell      =           13
     number of atomic types    =            2
     number of electrons       =       147.00
     number of Kohn-Sham states=           89
     kinetic-energy cutoff     =      55.0000  Ry
     charge density cutoff     =     556.0000  Ry
     convergence threshold     =      1.0E-08
     mixing beta               =       0.7000
     number of iterations used =            8  local-TF  mixing
     Exchange-correlation= SLA PW PBX PBC
                           (   1   4   3   4   0   0   0)

     celldm(1)=  30.000000  celldm(2)=   0.000000  celldm(3)=   0.000000
     celldm(4)=   0.000000  celldm(5)=   0.000000  celldm(6)=   0.000000

     crystal axes: (cart. coord. in units of alat)
               a(1) = (   1.000000   0.000000   0.000000 )  
               a(2) = (   0.000000   1.000000   0.000000 )  
               a(3) = (   0.000000   0.000000   1.000000 )  

     reciprocal axes: (cart. coord. in units 2 pi/alat)
               b(1) = (  1.000000  0.000000  0.000000 )  
               b(2) = (  0.000000  1.000000  0.000000 )  
               b(3) = (  0.000000  0.000000  1.000000 )  


     PseudoPot. # 1 for Ag read from file:
     ../../pseudo/Ag.pbe-dn-kjpaw_psl.0.1.UPF
     MD5 check sum: 2edc915f30f03476250949c796a6a376
     Pseudo is Projector augmented-wave + core cor, Zval = 11.0
     Generated using "atomic" code by A. Dal Corso v.5.0.2 svn rev. 9415
     Shape of augmentation charge: PSQ
     Using radial grid of 1237 points,  6 beta functions with: 
                l(1) =   0
                l(2) =   0
                l(3) =   1
                l(4) =   1
                l(5) =   2
                l(6) =   2
     Q(r) pseudized with 0 coefficients 


     PseudoPot. # 2 for Bi read from file:
     ../../pseudo/Bi.pbe-dn-kjpaw_psl.1.0.0.UPF
     MD5 check sum: 266ded784ae3bc462508ed03f0f37963
     Pseudo is Projector augmented-wave + core cor, Zval = 15.0
     Generated using "atomic" code by A. Dal Corso v.6.2.2
     Shape of augmentation charge: PSQ
     Using radial grid of 1283 points,  6 beta functions with: 
                l(1) =   0
                l(2) =   0
                l(3) =   1
                l(4) =   1
                l(5) =   2
                l(6) =   2
     Q(r) pseudized with 0 coefficients 


     atomic species   valence    mass     pseudopotential
        Ag            11.00   107.87000     Ag( 1.00)
        Bi            15.00   208.98000     Bi( 1.00)

     Starting magnetic structure 
     atomic species   magnetization
        Ag           0.700
        Bi           0.000

     No symmetry found


                                    s                        frac. trans.

      isym =  1     identity                                     

 cryst.   s( 1) = (     1          0          0      )
                  (     0          1          0      )
                  (     0          0          1      )

 cart.    s( 1) = (  1.0000000  0.0000000  0.0000000 )
                  (  0.0000000  1.0000000  0.0000000 )
                  (  0.0000000  0.0000000  1.0000000 )


     point group C_1 (1)    
     there are  1 classes
     the character table:

       E    
A      1.00

     the symmetry operations in each class and the name of the first element:

     E        1
          identity                                               

   Cartesian axes

     site n.     atom                  positions (alat units)
         1           Ag  tau(   1) = (   0.1451756   0.1419011   0.2862562  )
         2           Ag  tau(   2) = (   0.1763615   0.3138643   0.3627289  )
         3           Ag  tau(   3) = (   0.4388654   0.2191273   0.2308980  )
         4           Ag  tau(   4) = (   0.3127132   0.1806092   0.3687629  )
         5           Ag  tau(   5) = (   0.3492308   0.2041399   0.0631595  )
         6           Ag  tau(   6) = (   0.3804237   0.3760970   0.1396875  )
         7           Ag  tau(   7) = (   0.1677285   0.1564006   0.0973732  )
         8           Bi  tau(   8) = (   0.2627855   0.2589986   0.2129311  )
         9           Ag  tau(   9) = (   0.2180991   0.4346439   0.2211261  )
        10           Ag  tau(  10) = (   0.3578268   0.3616059   0.3285138  )
        11           Ag  tau(  11) = (   0.0866983   0.2988510   0.1949738  )
        12           Ag  tau(  12) = (   0.2128451   0.3373894   0.0571239  )
        13           Ag  tau(  13) = (   0.3074386   0.0833371   0.2048065  )

   Crystallographic axes

     site n.     atom                  positions (cryst. coord.)
         1           Ag  tau(   1) = (  0.1451756  0.1419011  0.2862562  )
         2           Ag  tau(   2) = (  0.1763615  0.3138643  0.3627289  )
         3           Ag  tau(   3) = (  0.4388654  0.2191273  0.2308980  )
         4           Ag  tau(   4) = (  0.3127132  0.1806092  0.3687629  )
         5           Ag  tau(   5) = (  0.3492308  0.2041399  0.0631595  )
         6           Ag  tau(   6) = (  0.3804237  0.3760970  0.1396875  )
         7           Ag  tau(   7) = (  0.1677285  0.1564006  0.0973732  )
         8           Bi  tau(   8) = (  0.2627855  0.2589986  0.2129311  )
         9           Ag  tau(   9) = (  0.2180991  0.4346439  0.2211261  )
        10           Ag  tau(  10) = (  0.3578268  0.3616059  0.3285138  )
        11           Ag  tau(  11) = (  0.0866983  0.2988510  0.1949738  )
        12           Ag  tau(  12) = (  0.2128451  0.3373894  0.0571239  )
        13           Ag  tau(  13) = (  0.3074386  0.0833371  0.2048065  )

     number of k points=     1  Fermi-Dirac smearing, width (Ry)=  0.0007
                       cart. coord. in units 2pi/alat
        k(    1) = (   0.0000000   0.0000000   0.0000000), wk =   1.0000000

                       cryst. coord.
        k(    1) = (   0.0000000   0.0000000   0.0000000), wk =   1.0000000

     Dense  grid:  2988927 G-vectors     FFT dimensions: ( 225, 225, 225)

     Smooth grid:   743819 G-vectors     FFT dimensions: ( 144, 144, 144)

     Dynamical RAM for                 wfc:       5.26 MB

     Dynamical RAM for     wfc (w. buffer):      15.78 MB

     Dynamical RAM for           str. fact:       3.80 MB

     Dynamical RAM for           local pot:       0.00 MB

     Dynamical RAM for          nlocal pot:      13.83 MB

     Dynamical RAM for                qrad:      18.04 MB

     Dynamical RAM for          rho,v,vnew:      34.58 MB

     Dynamical RAM for               rhoin:      11.53 MB

     Dynamical RAM for            rho*nmix:      60.81 MB

     Dynamical RAM for           G-vectors:       7.36 MB

     Dynamical RAM for          h,s,v(r/c):       0.18 MB

     Dynamical RAM for          <psi|beta>:       0.16 MB

     Dynamical RAM for                 psi:      21.04 MB

     Dynamical RAM for                hpsi:      21.04 MB

     Dynamical RAM for                spsi:      21.04 MB

     Dynamical RAM for      wfcinit/wfcrot:      14.15 MB

     Dynamical RAM for           addusdens:     378.16 MB

     Estimated static dynamical RAM per process >     194.61 MB

     Estimated max dynamical RAM per process >     572.76 MB

     Estimated total dynamical RAM >      13.42 GB
     Generating pointlists ...
     new r_m :   0.0748 (alat units)  2.2451 (a.u.) for type    1
     new r_m :   0.0748 (alat units)  2.2451 (a.u.) for type    2

     Check: negative core charge=   -0.000002

     Initial potential from superposition of free atoms

     starting charge  146.99440, renormalised to  147.00000
     Starting wfcs are  117 randomized atomic wfcs
     Checking if some PAW data can be deallocated... 
       PAW data deallocated on    2 nodes for type:  1
       PAW data deallocated on   22 nodes for type:  2

     total cpu time spent up to now is       34.7 secs

     Self-consistent Calculation

     iteration #  1     ecut=    55.00 Ry     beta= 0.70
     Davidson diagonalization with overlap
     ethr =  1.00E-02,  avg # of iterations =  3.0

     total cpu time spent up to now is       87.3 secs

     total energy              =   -5168.09317469 Ry
     Harris-Foulkes estimate   =   -5161.97562704 Ry
     estimated scf accuracy    <       6.51761247 Ry

     total magnetization       =     7.00 Bohr mag/cell
     absolute magnetization    =     7.00 Bohr mag/cell

     iteration #  2     ecut=    55.00 Ry     beta= 0.70
     Davidson diagonalization with overlap
     ethr =  4.43E-03,  avg # of iterations =  1.0

     total cpu time spent up to now is      137.4 secs

     total energy              =   -5168.94944122 Ry
     Harris-Foulkes estimate   =   -5168.28469952 Ry
     estimated scf accuracy    <       0.85534653 Ry

     total magnetization       =     3.00 Bohr mag/cell
     absolute magnetization    =     3.32 Bohr mag/cell

     iteration #  3     ecut=    55.00 Ry     beta= 0.70
     Davidson diagonalization with overlap
     ethr =  5.82E-04,  avg # of iterations =  3.0

     total cpu time spent up to now is      189.4 secs

     total energy              =   -5169.00311107 Ry
     Harris-Foulkes estimate   =   -5169.01233196 Ry
     estimated scf accuracy    <       0.05811889 Ry

     total magnetization       =     3.00 Bohr mag/cell
     absolute magnetization    =     3.10 Bohr mag/cell

     iteration #  4     ecut=    55.00 Ry     beta= 0.70
     Davidson diagonalization with overlap
     ethr =  3.95E-05,  avg # of iterations = 10.0

     total cpu time spent up to now is      251.8 secs

     total energy              =   -5169.01200957 Ry
     Harris-Foulkes estimate   =   -5169.01870561 Ry
     estimated scf accuracy    <       0.02945039 Ry

     total magnetization       =     3.00 Bohr mag/cell
     absolute magnetization    =     3.04 Bohr mag/cell

     iteration #  5     ecut=    55.00 Ry     beta= 0.70
     Davidson diagonalization with overlap
     ethr =  2.00E-05,  avg # of iterations =  2.5

     total cpu time spent up to now is      303.1 secs

     total energy              =   -5169.00965157 Ry
     Harris-Foulkes estimate   =   -5169.01337069 Ry
     estimated scf accuracy    <       0.01827467 Ry

     total magnetization       =     3.00 Bohr mag/cell
     absolute magnetization    =     3.06 Bohr mag/cell

     iteration #  6     ecut=    55.00 Ry     beta= 0.70
     Davidson diagonalization with overlap
     ethr =  1.24E-05,  avg # of iterations =  4.0

     total cpu time spent up to now is      355.1 secs

     total energy              =   -5169.00690506 Ry
     Harris-Foulkes estimate   =   -5169.01017244 Ry
     estimated scf accuracy    <       0.01272933 Ry

     total magnetization       =     3.00 Bohr mag/cell
     absolute magnetization    =     3.08 Bohr mag/cell

     iteration #  7     ecut=    55.00 Ry     beta= 0.70
     Davidson diagonalization with overlap
     ethr =  8.66E-06,  avg # of iterations = 12.0

     total cpu time spent up to now is      411.8 secs

     total energy              =   -5169.00540891 Ry
     Harris-Foulkes estimate   =   -5169.00760882 Ry
     estimated scf accuracy    <       0.00717336 Ry

     total magnetization       =     3.00 Bohr mag/cell
     absolute magnetization    =     3.08 Bohr mag/cell

     iteration #  8     ecut=    55.00 Ry     beta= 0.70
     Davidson diagonalization with overlap
     ethr =  4.88E-06,  avg # of iterations = 14.5

     total cpu time spent up to now is      469.1 secs

     total energy              =   -5169.00543679 Ry
     Harris-Foulkes estimate   =   -5169.00569111 Ry
     estimated scf accuracy    <       0.00429180 Ry

     total magnetization       =     3.00 Bohr mag/cell
     absolute magnetization    =     3.09 Bohr mag/cell

     iteration #  9     ecut=    55.00 Ry     beta= 0.70
     Davidson diagonalization with overlap
     ethr =  2.92E-06,  avg # of iterations = 13.0

     total cpu time spent up to now is      526.9 secs

     total energy              =   -5169.00717739 Ry
     Harris-Foulkes estimate   =   -5169.00578307 Ry
     estimated scf accuracy    <       0.00212495 Ry

     total magnetization       =     3.00 Bohr mag/cell
     absolute magnetization    =     3.08 Bohr mag/cell

     iteration # 10     ecut=    55.00 Ry     beta= 0.70
     Davidson diagonalization with overlap
     ethr =  1.45E-06,  avg # of iterations =  9.0

     total cpu time spent up to now is      581.7 secs

     total energy              =   -5169.00857332 Ry
     Harris-Foulkes estimate   =   -5169.00730638 Ry
     estimated scf accuracy    <       0.00145571 Ry

     total magnetization       =     3.00 Bohr mag/cell
     absolute magnetization    =     3.07 Bohr mag/cell

     iteration # 11     ecut=    55.00 Ry     beta= 0.70
     Davidson diagonalization with overlap
     ethr =  9.90E-07,  avg # of iterations =  9.5

     total cpu time spent up to now is      637.8 secs

     total energy              =   -5169.00970553 Ry
     Harris-Foulkes estimate   =   -5169.00867715 Ry
     estimated scf accuracy    <       0.00070781 Ry

     total magnetization       =     3.00 Bohr mag/cell
     absolute magnetization    =     3.08 Bohr mag/cell

     iteration # 12     ecut=    55.00 Ry     beta= 0.70
     Davidson diagonalization with overlap
     ethr =  4.82E-07,  avg # of iterations = 11.0

     total cpu time spent up to now is      694.4 secs

     total energy              =   -5169.01010925 Ry
     Harris-Foulkes estimate   =   -5169.00975554 Ry
     estimated scf accuracy    <       0.00061570 Ry

     total magnetization       =     3.00 Bohr mag/cell
     absolute magnetization    =     3.08 Bohr mag/cell

     iteration # 13     ecut=    55.00 Ry     beta= 0.70
     Davidson diagonalization with overlap
     ethr =  4.19E-07,  avg # of iterations = 11.0

     total cpu time spent up to now is      749.0 secs

     total energy              =   -5169.01034296 Ry
     Harris-Foulkes estimate   =   -5169.01016346 Ry
     estimated scf accuracy    <       0.00032906 Ry

     total magnetization       =     3.00 Bohr mag/cell
     absolute magnetization    =     3.08 Bohr mag/cell

     iteration # 14     ecut=    55.00 Ry     beta= 0.70
     Davidson diagonalization with overlap
     ethr =  2.24E-07,  avg # of iterations =  4.0

     total cpu time spent up to now is      800.9 secs

     total energy              =   -5169.01043908 Ry
     Harris-Foulkes estimate   =   -5169.01035178 Ry
     estimated scf accuracy    <       0.00018929 Ry

     total magnetization       =     3.00 Bohr mag/cell
     absolute magnetization    =     3.08 Bohr mag/cell

     iteration # 15     ecut=    55.00 Ry     beta= 0.70
     Davidson diagonalization with overlap
     ethr =  1.29E-07,  avg # of iterations = 12.0

     total cpu time spent up to now is      856.4 secs

     total energy              =   -5169.01045823 Ry
     Harris-Foulkes estimate   =   -5169.01044684 Ry
     estimated scf accuracy    <       0.00010502 Ry

     total magnetization       =     3.00 Bohr mag/cell
     absolute magnetization    =     3.08 Bohr mag/cell

     iteration # 16     ecut=    55.00 Ry     beta= 0.70
     Davidson diagonalization with overlap
     ethr =  7.14E-08,  avg # of iterations =  4.0

     total cpu time spent up to now is      907.9 secs

     total energy              =   -5169.01052764 Ry
     Harris-Foulkes estimate   =   -5169.01046210 Ry
     estimated scf accuracy    <       0.00005925 Ry

     total magnetization       =     3.00 Bohr mag/cell
     absolute magnetization    =     3.08 Bohr mag/cell

     iteration # 17     ecut=    55.00 Ry     beta= 0.70
     Davidson diagonalization with overlap
     ethr =  4.03E-08,  avg # of iterations =  8.5

     total cpu time spent up to now is      961.5 secs

     total energy              =   -5169.01057728 Ry
     Harris-Foulkes estimate   =   -5169.01053172 Ry
     estimated scf accuracy    <       0.00002676 Ry

     total magnetization       =     3.00 Bohr mag/cell
     absolute magnetization    =     3.08 Bohr mag/cell

     iteration # 18     ecut=    55.00 Ry     beta= 0.70
     Davidson diagonalization with overlap
     ethr =  1.82E-08,  avg # of iterations =  2.0

     total cpu time spent up to now is     1012.3 secs

     total energy              =   -5169.01062198 Ry
     Harris-Foulkes estimate   =   -5169.01057861 Ry
     estimated scf accuracy    <       0.00001409 Ry

     total magnetization       =     3.00 Bohr mag/cell
     absolute magnetization    =     3.08 Bohr mag/cell

     iteration # 19     ecut=    55.00 Ry     beta= 0.70
     Davidson diagonalization with overlap
     ethr =  9.59E-09,  avg # of iterations = 10.5

     total cpu time spent up to now is     1067.2 secs

     total energy              =   -5169.01062979 Ry
     Harris-Foulkes estimate   =   -5169.01062380 Ry
     estimated scf accuracy    <       0.00001012 Ry

     total magnetization       =     3.00 Bohr mag/cell
     absolute magnetization    =     3.08 Bohr mag/cell

     iteration # 20     ecut=    55.00 Ry     beta= 0.70
     Davidson diagonalization with overlap
     ethr =  6.88E-09,  avg # of iterations =  1.5

     total cpu time spent up to now is     1117.9 secs

     total energy              =   -5169.01063288 Ry
     Harris-Foulkes estimate   =   -5169.01063041 Ry
     estimated scf accuracy    <       0.00000405 Ry

     total magnetization       =     3.00 Bohr mag/cell
     absolute magnetization    =     3.08 Bohr mag/cell

     iteration # 21     ecut=    55.00 Ry     beta= 0.70
     Davidson diagonalization with overlap
     ethr =  2.76E-09,  avg # of iterations =  3.0

     total cpu time spent up to now is     1169.2 secs

     total energy              =   -5169.01063537 Ry
     Harris-Foulkes estimate   =   -5169.01063320 Ry
     estimated scf accuracy    <       0.00000153 Ry

     total magnetization       =     3.00 Bohr mag/cell
     absolute magnetization    =     3.08 Bohr mag/cell

     iteration # 22     ecut=    55.00 Ry     beta= 0.70
     Davidson diagonalization with overlap
     ethr =  1.04E-09,  avg # of iterations =  3.5

     total cpu time spent up to now is     1220.8 secs

     total energy              =   -5169.01063597 Ry
     Harris-Foulkes estimate   =   -5169.01063552 Ry
     estimated scf accuracy    <       0.00000145 Ry

     total magnetization       =     3.00 Bohr mag/cell
     absolute magnetization    =     3.08 Bohr mag/cell

     iteration # 23     ecut=    55.00 Ry     beta= 0.70
     Davidson diagonalization with overlap
     ethr =  9.87E-10,  avg # of iterations =  2.0

     total cpu time spent up to now is     1271.6 secs

     total energy              =   -5169.01063706 Ry
     Harris-Foulkes estimate   =   -5169.01063609 Ry
     estimated scf accuracy    <       0.00000045 Ry

     total magnetization       =     3.00 Bohr mag/cell
     absolute magnetization    =     3.08 Bohr mag/cell

     iteration # 24     ecut=    55.00 Ry     beta= 0.70
     Davidson diagonalization with overlap
     ethr =  3.07E-10,  avg # of iterations =  3.5

     total cpu time spent up to now is     1323.5 secs

     total energy              =   -5169.01063732 Ry
     Harris-Foulkes estimate   =   -5169.01063711 Ry
     estimated scf accuracy    <       0.00000020 Ry

     total magnetization       =     3.00 Bohr mag/cell
     absolute magnetization    =     3.08 Bohr mag/cell

     iteration # 25     ecut=    55.00 Ry     beta= 0.70
     Davidson diagonalization with overlap
     ethr =  1.35E-10,  avg # of iterations =  3.5

     total cpu time spent up to now is     1375.9 secs

     total energy              =   -5169.01063745 Ry
     Harris-Foulkes estimate   =   -5169.01063735 Ry
     estimated scf accuracy    <       0.00000012 Ry

     total magnetization       =     3.00 Bohr mag/cell
     absolute magnetization    =     3.08 Bohr mag/cell

     iteration # 26     ecut=    55.00 Ry     beta= 0.70
     Davidson diagonalization with overlap
     ethr =  8.12E-11,  avg # of iterations =  2.5

     total cpu time spent up to now is     1426.9 secs

     total energy              =   -5169.01063754 Ry
     Harris-Foulkes estimate   =   -5169.01063746 Ry
     estimated scf accuracy    <       0.00000003 Ry

     total magnetization       =     3.00 Bohr mag/cell
     absolute magnetization    =     3.08 Bohr mag/cell

     iteration # 27     ecut=    55.00 Ry     beta= 0.70
     Davidson diagonalization with overlap
     ethr =  2.28E-11,  avg # of iterations =  4.0

     total cpu time spent up to now is     1482.7 secs

     total energy              =   -5169.01063753 Ry
     Harris-Foulkes estimate   =   -5169.01063756 Ry
     estimated scf accuracy    <       0.00000006 Ry

     total magnetization       =     3.00 Bohr mag/cell
     absolute magnetization    =     3.08 Bohr mag/cell

     iteration # 28     ecut=    55.00 Ry     beta= 0.70
     Davidson diagonalization with overlap
     ethr =  2.28E-11,  avg # of iterations =  2.5

     total cpu time spent up to now is     1534.0 secs

     total energy              =   -5169.01063753 Ry
     Harris-Foulkes estimate   =   -5169.01063753 Ry
     estimated scf accuracy    <       0.00000001 Ry

     total magnetization       =     3.00 Bohr mag/cell
     absolute magnetization    =     3.08 Bohr mag/cell

     iteration # 29     ecut=    55.00 Ry     beta= 0.70
     Davidson diagonalization with overlap
     ethr =  7.20E-12,  avg # of iterations =  3.0

     total cpu time spent up to now is     1585.2 secs

     total energy              =   -5169.01063751 Ry
     Harris-Foulkes estimate   =   -5169.01063753 Ry
     estimated scf accuracy    <       0.00000001 Ry

     total magnetization       =     3.00 Bohr mag/cell
     absolute magnetization    =     3.08 Bohr mag/cell

     iteration # 30     ecut=    55.00 Ry     beta= 0.70
     Davidson diagonalization with overlap
     ethr =  6.96E-12,  avg # of iterations =  4.0
 
     Magnetic moment per site:
     atom:    1    charge:    9.5806    magn:    0.0877    constr:    0.0000
     atom:    2    charge:    9.5812    magn:    0.0868    constr:    0.0000
     atom:    3    charge:    9.5817    magn:    0.0856    constr:    0.0000
     atom:    4    charge:    9.5813    magn:    0.0864    constr:    0.0000
     atom:    5    charge:    9.5811    magn:    0.0867    constr:    0.0000
     atom:    6    charge:    9.5806    magn:    0.0877    constr:    0.0000
     atom:    7    charge:    9.5807    magn:    0.0873    constr:    0.0000
     atom:    8    charge:   12.3519    magn:   -0.0040    constr:    0.0000
     atom:    9    charge:    9.5816    magn:    0.0858    constr:    0.0000
     atom:   10    charge:    9.5809    magn:    0.0873    constr:    0.0000
     atom:   11    charge:    9.5817    magn:    0.0856    constr:    0.0000
     atom:   12    charge:    9.5811    magn:    0.0864    constr:    0.0000
     atom:   13    charge:    9.5815    magn:    0.0858    constr:    0.0000

     total cpu time spent up to now is     1639.7 secs

     End of self-consistent calculation

 ------ SPIN UP ------------


          k = 0.0000 0.0000 0.0000 ( 93012 PWs)   bands (ev):

   -26.8615 -26.8612 -26.8610 -26.8606 -26.8603 -15.6057  -9.1430  -9.1429
    -9.1426  -7.8689  -7.8684  -7.8666  -7.8640  -7.8631  -7.8464  -7.8451
    -7.8433  -7.8428  -7.6585  -7.6584  -7.6579  -7.5865  -7.5587  -7.5585
    -7.5580  -7.5573  -7.3579  -7.3578  -7.3575  -7.2346  -7.2336  -7.2328
    -7.2315  -7.2303  -7.0294  -7.0287  -7.0281  -7.0274  -7.0270  -6.8809
    -6.8806  -6.8798  -6.8789  -6.8781  -6.8597  -6.8575  -6.8569  -6.6755
    -6.6740  -6.6729  -6.6709  -6.5419  -6.5404  -6.5397  -6.5386  -6.5379
    -6.4570  -6.4558  -6.4557  -6.4509  -6.4494  -6.4488  -6.4468  -6.2513
    -6.2510  -6.2499  -5.8184  -5.8167  -5.8161  -5.1163  -3.4214  -3.4169
    -3.4136  -3.4065  -3.4022  -2.1936  -2.1935  -2.1920  -1.2775  -1.2759
    -1.2732  -0.8030  -0.7981  -0.7919  -0.7916  -0.2279   0.4236   0.4244
     0.4935

     occupation numbers 
     1.0000   1.0000   1.0000   1.0000   1.0000   1.0000   1.0000   1.0000
     1.0000   1.0000   1.0000   1.0000   1.0000   1.0000   1.0000   1.0000
     1.0000   1.0000   1.0000   1.0000   1.0000   1.0000   1.0000   1.0000
     1.0000   1.0000   1.0000   1.0000   1.0000   1.0000   1.0000   1.0000
     1.0000   1.0000   1.0000   1.0000   1.0000   1.0000   1.0000   1.0000
     1.0000   1.0000   1.0000   1.0000   1.0000   1.0000   1.0000   1.0000
     1.0000   1.0000   1.0000   1.0000   1.0000   1.0000   1.0000   1.0000
     1.0000   1.0000   1.0000   1.0000   1.0000   1.0000   1.0000   1.0000
     1.0000   1.0000   1.0000   1.0000   1.0000   1.0000   1.0000   1.0000
     1.0000   1.0000   1.0000   0.0000   0.0000   0.0000   0.0000   0.0000
     0.0000   0.0000   0.0000   0.0000   0.0000   0.0000   0.0000   0.0000
     0.0000

 ------ SPIN DOWN ----------


          k = 0.0000 0.0000 0.0000 ( 93012 PWs)   bands (ev):

   -26.8611 -26.8611 -26.8611 -26.8610 -26.8609 -15.5925  -9.0748  -9.0746
    -9.0742  -7.7968  -7.7962  -7.7957  -7.7952  -7.7944  -7.7800  -7.7793
    -7.7788  -7.7785  -7.5730  -7.5728  -7.5723  -7.4850  -7.4849  -7.4847
    -7.4843  -7.4592  -7.2706  -7.2704  -7.2698  -7.1665  -7.1662  -7.1658
    -7.1653  -7.1648  -6.9682  -6.9679  -6.9678  -6.9672  -6.9668  -6.8330
    -6.8329  -6.8314  -6.8311  -6.8301  -6.8184  -6.8170  -6.8166  -6.6120
    -6.6113  -6.6111  -6.6105  -6.4831  -6.4823  -6.4819  -6.4812  -6.4808
    -6.4027  -6.4017  -6.4016  -6.3900  -6.3897  -6.3895  -6.3889  -6.2023
    -6.2021  -6.2015  -5.6924  -5.6923  -5.6921  -4.9656  -3.1837  -3.1824
    -3.1804  -3.1794  -3.1779  -2.0411  -2.0409  -2.0405  -1.0724  -1.0711
    -1.0698  -0.5375  -0.5351  -0.5333  -0.5315  -0.0975   0.5844   0.5885
     0.6749

     occupation numbers 
     1.0000   1.0000   1.0000   1.0000   1.0000   1.0000   1.0000   1.0000
     1.0000   1.0000   1.0000   1.0000   1.0000   1.0000   1.0000   1.0000
     1.0000   1.0000   1.0000   1.0000   1.0000   1.0000   1.0000   1.0000
     1.0000   1.0000   1.0000   1.0000   1.0000   1.0000   1.0000   1.0000
     1.0000   1.0000   1.0000   1.0000   1.0000   1.0000   1.0000   1.0000
     1.0000   1.0000   1.0000   1.0000   1.0000   1.0000   1.0000   1.0000
     1.0000   1.0000   1.0000   1.0000   1.0000   1.0000   1.0000   1.0000
     1.0000   1.0000   1.0000   1.0000   1.0000   1.0000   1.0000   1.0000
     1.0000   1.0000   1.0000   1.0000   1.0000   1.0000   0.4750   0.4412
     0.3900   0.3643   0.3295   0.0000   0.0000   0.0000   0.0000   0.0000
     0.0000   0.0000   0.0000   0.0000   0.0000   0.0000   0.0000   0.0000
     0.0000

     the Fermi energy is    -3.1847 ev

!    total energy              =   -5169.01063753 Ry
     Harris-Foulkes estimate   =   -5169.01063751 Ry
     estimated scf accuracy    <          3.4E-09 Ry

     total all-electron energy =   -170648.061299 Ry

     The total energy is the sum of the following terms:

     one-electron contribution =   -3713.54144011 Ry
     hartree contribution      =    1951.81450782 Ry
     xc contribution           =    -459.74708309 Ry
     ewald contribution        =     958.99408003 Ry
     one-center paw contrib.   =   -3906.52836658 Ry
      -> PAW hartree energy AE =      66.74885710 Ry
      -> PAW hartree energy PS =     -66.60164616 Ry
      -> PAW xc energy AE      =    -297.85621987 Ry
      -> PAW xc energy PS      =      35.21389598 Ry
      -> total E_H with PAW    =    1951.96171876 Ry
      -> total E_XC with PAW   =    -722.38940698 Ry
     smearing contrib. (-TS)   =      -0.00233560 Ry

     total magnetization       =     3.00 Bohr mag/cell
     absolute magnetization    =     3.08 Bohr mag/cell

     convergence has been achieved in  30 iterations

     Writing output data file ./tmp/ag12Bic.save/
 
     init_run     :     29.32s CPU     30.63s WALL (       1 calls)
     electrons    :   1544.07s CPU   1607.78s WALL (       1 calls)

     Called by init_run:
     wfcinit      :      7.56s CPU      7.68s WALL (       1 calls)
     wfcinit:atom :      0.05s CPU      0.06s WALL (       2 calls)
     wfcinit:wfcr :      7.38s CPU      7.44s WALL (       2 calls)
     potinit      :      6.36s CPU      6.64s WALL (       1 calls)
     hinit0       :      2.86s CPU      2.94s WALL (       1 calls)

     Called by electrons:
     c_bands      :    475.26s CPU    482.50s WALL (      30 calls)
     sum_band     :    609.03s CPU    635.63s WALL (      30 calls)
     v_of_rho     :    114.48s CPU    117.13s WALL (      31 calls)
     v_h          :      7.33s CPU      7.38s WALL (      31 calls)
     v_xc         :    107.15s CPU    109.75s WALL (      31 calls)
     newd         :    230.89s CPU    253.80s WALL (      31 calls)
     PAW_pot      :     40.55s CPU     40.83s WALL (      31 calls)
     mix_rho      :     67.52s CPU     68.55s WALL (      30 calls)

     Called by c_bands:
     init_us_2    :      2.49s CPU      2.54s WALL (     122 calls)
     regterg      :    459.74s CPU    466.29s WALL (      60 calls)

     Called by sum_band:
     sum_band:bec :      0.04s CPU      0.04s WALL (      60 calls)
     addusdens    :    500.37s CPU    526.36s WALL (      30 calls)

     Called by *egterg:
     h_psi        :    354.49s CPU    356.29s WALL (     417 calls)
     s_psi        :     27.33s CPU     27.38s WALL (     417 calls)
     g_psi        :      0.83s CPU      0.84s WALL (     355 calls)
     rdiaghg      :     11.32s CPU     11.96s WALL (     415 calls)
     regterg:over :     26.84s CPU     26.91s WALL (     355 calls)
     regterg:upda :     23.86s CPU     24.06s WALL (     355 calls)
     regterg:last :      6.96s CPU      6.98s WALL (      60 calls)
     rdiaghg:chol :      0.40s CPU      0.40s WALL (     415 calls)
     rdiaghg:inve :      0.32s CPU      0.33s WALL (     415 calls)
     rdiaghg:para :      0.97s CPU      0.99s WALL (     830 calls)

     Called by h_psi:
     h_psi:calbec :     20.58s CPU     20.63s WALL (     417 calls)
     vloc_psi     :    303.69s CPU    305.35s WALL (     417 calls)
     add_vuspsi   :     28.31s CPU     28.38s WALL (     417 calls)

     General routines
     calbec       :     26.95s CPU     27.02s WALL (     477 calls)
     fft          :    116.43s CPU    116.96s WALL (     644 calls)
     ffts         :     30.15s CPU     30.31s WALL (     739 calls)
     fftw         :    239.81s CPU    241.24s WALL (   15320 calls)
     interpolate  :     15.16s CPU     15.23s WALL (      62 calls)
 
     Parallel routines
     fft_scatt_xy :     60.77s CPU     61.16s WALL (   16703 calls)
     fft_scatt_yz :    117.74s CPU    118.39s WALL (   16703 calls)

     PAW routines
     PAW_pot      :     40.55s CPU     40.83s WALL (      31 calls)
 
     PWSCF        :  26m17.77s CPU  27m24.31s WALL

 
   This run was terminated on:   0:12: 0   5Jun2020            

=------------------------------------------------------------------------------=
   JOB DONE.
=------------------------------------------------------------------------------=
