
     Program PWSCF v.6.5 starts on  5Jun2020 at  0:12: 2 

     This program is part of the open-source Quantum ESPRESSO suite
     for quantum simulation of materials; please cite
         "P. Giannozzi et al., J. Phys.:Condens. Matter 21 395502 (2009);
         "P. Giannozzi et al., J. Phys.:Condens. Matter 29 465901 (2017);
          URL http://www.quantum-espresso.org", 
     in publications or presentations arising from this work. More details at
     http://www.quantum-espresso.org/quote

     Parallel version (MPI & OpenMP), running on      24 processor cores
     Number of MPI processes:                24
     Threads/MPI process:                     1

     MPI processes distributed on     1 nodes
     R & G space division:  proc/nbgrp/npool/nimage =      24
     Waiting for input...
     Reading input from standard input

     Current dimensions of program PWSCF are:
     Max number of different atomic species (ntypx) = 10
     Max number of k-points (npk) =  40000
     Max angular momentum in pseudopotentials (lmaxx) =  3
               file Ag.pbe-dn-kjpaw_psl.0.1.UPF: wavefunction(s)  5S 5P 4D renormalized
               file Bi.pbe-dn-kjpaw_psl.1.0.0.UPF: wavefunction(s)  6P 5D renormalized

     gamma-point specific algorithms are used

     Subspace diagonalization in iterative solution of the eigenvalue problem:
     one sub-group per band group will be used
     scalapack distributed-memory algorithm (size of sub-group:  4*  4 procs)

 
     Parallelization info
     --------------------
     sticks:   dense  smooth     PW     G-vecs:    dense   smooth      PW
     Min        1807     714    177               283428    70606    8814
     Max        1810     716    180               283438    70620    8824
     Sum       43401   17165   4281              6802347  1694695  211657
 


     bravais-lattice index     =            1
     lattice parameter (alat)  =      30.0000  a.u.
     unit-cell volume          =   27000.0000 (a.u.)^3
     number of atoms/cell      =           13
     number of atomic types    =            2
     number of electrons       =       147.00
     number of Kohn-Sham states=           89
     kinetic-energy cutoff     =      60.0000  Ry
     charge density cutoff     =     606.0000  Ry
     convergence threshold     =      1.0E-08
     mixing beta               =       0.7000
     number of iterations used =            8  local-TF  mixing
     Exchange-correlation= SLA PW PBX PBC
                           (   1   4   3   4   0   0   0)

     celldm(1)=  30.000000  celldm(2)=   0.000000  celldm(3)=   0.000000
     celldm(4)=   0.000000  celldm(5)=   0.000000  celldm(6)=   0.000000

     crystal axes: (cart. coord. in units of alat)
               a(1) = (   1.000000   0.000000   0.000000 )  
               a(2) = (   0.000000   1.000000   0.000000 )  
               a(3) = (   0.000000   0.000000   1.000000 )  

     reciprocal axes: (cart. coord. in units 2 pi/alat)
               b(1) = (  1.000000  0.000000  0.000000 )  
               b(2) = (  0.000000  1.000000  0.000000 )  
               b(3) = (  0.000000  0.000000  1.000000 )  


     PseudoPot. # 1 for Ag read from file:
     ../../pseudo/Ag.pbe-dn-kjpaw_psl.0.1.UPF
     MD5 check sum: 2edc915f30f03476250949c796a6a376
     Pseudo is Projector augmented-wave + core cor, Zval = 11.0
     Generated using "atomic" code by A. Dal Corso v.5.0.2 svn rev. 9415
     Shape of augmentation charge: PSQ
     Using radial grid of 1237 points,  6 beta functions with: 
                l(1) =   0
                l(2) =   0
                l(3) =   1
                l(4) =   1
                l(5) =   2
                l(6) =   2
     Q(r) pseudized with 0 coefficients 


     PseudoPot. # 2 for Bi read from file:
     ../../pseudo/Bi.pbe-dn-kjpaw_psl.1.0.0.UPF
     MD5 check sum: 266ded784ae3bc462508ed03f0f37963
     Pseudo is Projector augmented-wave + core cor, Zval = 15.0
     Generated using "atomic" code by A. Dal Corso v.6.2.2
     Shape of augmentation charge: PSQ
     Using radial grid of 1283 points,  6 beta functions with: 
                l(1) =   0
                l(2) =   0
                l(3) =   1
                l(4) =   1
                l(5) =   2
                l(6) =   2
     Q(r) pseudized with 0 coefficients 


     atomic species   valence    mass     pseudopotential
        Ag            11.00   107.87000     Ag( 1.00)
        Bi            15.00   208.98000     Bi( 1.00)

     Starting magnetic structure 
     atomic species   magnetization
        Ag           0.700
        Bi           0.000

     No symmetry found


                                    s                        frac. trans.

      isym =  1     identity                                     

 cryst.   s( 1) = (     1          0          0      )
                  (     0          1          0      )
                  (     0          0          1      )

 cart.    s( 1) = (  1.0000000  0.0000000  0.0000000 )
                  (  0.0000000  1.0000000  0.0000000 )
                  (  0.0000000  0.0000000  1.0000000 )


     point group C_1 (1)    
     there are  1 classes
     the character table:

       E    
A      1.00

     the symmetry operations in each class and the name of the first element:

     E        1
          identity                                               

   Cartesian axes

     site n.     atom                  positions (alat units)
         1           Ag  tau(   1) = (   0.1451756   0.1419011   0.2862562  )
         2           Ag  tau(   2) = (   0.1763615   0.3138643   0.3627289  )
         3           Ag  tau(   3) = (   0.4388654   0.2191273   0.2308980  )
         4           Ag  tau(   4) = (   0.3127132   0.1806092   0.3687629  )
         5           Ag  tau(   5) = (   0.3492308   0.2041399   0.0631595  )
         6           Ag  tau(   6) = (   0.3804237   0.3760970   0.1396875  )
         7           Ag  tau(   7) = (   0.1677285   0.1564006   0.0973732  )
         8           Bi  tau(   8) = (   0.2627855   0.2589986   0.2129311  )
         9           Ag  tau(   9) = (   0.2180991   0.4346439   0.2211261  )
        10           Ag  tau(  10) = (   0.3578268   0.3616059   0.3285138  )
        11           Ag  tau(  11) = (   0.0866983   0.2988510   0.1949738  )
        12           Ag  tau(  12) = (   0.2128451   0.3373894   0.0571239  )
        13           Ag  tau(  13) = (   0.3074386   0.0833371   0.2048065  )

   Crystallographic axes

     site n.     atom                  positions (cryst. coord.)
         1           Ag  tau(   1) = (  0.1451756  0.1419011  0.2862562  )
         2           Ag  tau(   2) = (  0.1763615  0.3138643  0.3627289  )
         3           Ag  tau(   3) = (  0.4388654  0.2191273  0.2308980  )
         4           Ag  tau(   4) = (  0.3127132  0.1806092  0.3687629  )
         5           Ag  tau(   5) = (  0.3492308  0.2041399  0.0631595  )
         6           Ag  tau(   6) = (  0.3804237  0.3760970  0.1396875  )
         7           Ag  tau(   7) = (  0.1677285  0.1564006  0.0973732  )
         8           Bi  tau(   8) = (  0.2627855  0.2589986  0.2129311  )
         9           Ag  tau(   9) = (  0.2180991  0.4346439  0.2211261  )
        10           Ag  tau(  10) = (  0.3578268  0.3616059  0.3285138  )
        11           Ag  tau(  11) = (  0.0866983  0.2988510  0.1949738  )
        12           Ag  tau(  12) = (  0.2128451  0.3373894  0.0571239  )
        13           Ag  tau(  13) = (  0.3074386  0.0833371  0.2048065  )

     number of k points=     1  Fermi-Dirac smearing, width (Ry)=  0.0007
                       cart. coord. in units 2pi/alat
        k(    1) = (   0.0000000   0.0000000   0.0000000), wk =   1.0000000

                       cryst. coord.
        k(    1) = (   0.0000000   0.0000000   0.0000000), wk =   1.0000000

     Dense  grid:  3401174 G-vectors     FFT dimensions: ( 240, 240, 240)

     Smooth grid:   847348 G-vectors     FFT dimensions: ( 150, 150, 150)

     Dynamical RAM for                 wfc:       5.99 MB

     Dynamical RAM for     wfc (w. buffer):      17.98 MB

     Dynamical RAM for           str. fact:       4.32 MB

     Dynamical RAM for           local pot:       0.00 MB

     Dynamical RAM for          nlocal pot:      15.76 MB

     Dynamical RAM for                qrad:      18.84 MB

     Dynamical RAM for          rho,v,vnew:      39.34 MB

     Dynamical RAM for               rhoin:      13.11 MB

     Dynamical RAM for            rho*nmix:      69.20 MB

     Dynamical RAM for           G-vectors:       8.38 MB

     Dynamical RAM for          h,s,v(r/c):       0.18 MB

     Dynamical RAM for          <psi|beta>:       0.16 MB

     Dynamical RAM for                 psi:      23.98 MB

     Dynamical RAM for                hpsi:      23.98 MB

     Dynamical RAM for                spsi:      23.98 MB

     Dynamical RAM for      wfcinit/wfcrot:      16.07 MB

     Dynamical RAM for           addusdens:     430.32 MB

     Estimated static dynamical RAM per process >     219.79 MB

     Estimated max dynamical RAM per process >     650.11 MB

     Estimated total dynamical RAM >      15.24 GB
     Generating pointlists ...
     new r_m :   0.0748 (alat units)  2.2451 (a.u.) for type    1
     new r_m :   0.0748 (alat units)  2.2451 (a.u.) for type    2

     Check: negative core charge=   -0.000003

     Initial potential from superposition of free atoms

     starting charge  146.99440, renormalised to  147.00000
     Starting wfcs are  117 randomized atomic wfcs
     Checking if some PAW data can be deallocated... 
       PAW data deallocated on    2 nodes for type:  1
       PAW data deallocated on   22 nodes for type:  2

     total cpu time spent up to now is       39.4 secs

     Self-consistent Calculation

     iteration #  1     ecut=    60.00 Ry     beta= 0.70
     Davidson diagonalization with overlap
     ethr =  1.00E-02,  avg # of iterations =  3.0

     total cpu time spent up to now is      101.6 secs

     total energy              =   -5168.09770757 Ry
     Harris-Foulkes estimate   =   -5161.98126985 Ry
     estimated scf accuracy    <       6.52079952 Ry

     total magnetization       =     7.00 Bohr mag/cell
     absolute magnetization    =     7.00 Bohr mag/cell

     iteration #  2     ecut=    60.00 Ry     beta= 0.70
     Davidson diagonalization with overlap
     ethr =  4.44E-03,  avg # of iterations =  1.0

     total cpu time spent up to now is      161.0 secs

     total energy              =   -5168.95250784 Ry
     Harris-Foulkes estimate   =   -5168.28837483 Ry
     estimated scf accuracy    <       0.85642945 Ry

     total magnetization       =     3.00 Bohr mag/cell
     absolute magnetization    =     3.33 Bohr mag/cell

     iteration #  3     ecut=    60.00 Ry     beta= 0.70
     Davidson diagonalization with overlap
     ethr =  5.83E-04,  avg # of iterations =  3.0

     total cpu time spent up to now is      222.9 secs

     total energy              =   -5169.00690683 Ry
     Harris-Foulkes estimate   =   -5169.01621081 Ry
     estimated scf accuracy    <       0.05807877 Ry

     total magnetization       =     3.00 Bohr mag/cell
     absolute magnetization    =     3.10 Bohr mag/cell

     iteration #  4     ecut=    60.00 Ry     beta= 0.70
     Davidson diagonalization with overlap
     ethr =  3.95E-05,  avg # of iterations = 11.0

     total cpu time spent up to now is      296.9 secs

     total energy              =   -5169.01578640 Ry
     Harris-Foulkes estimate   =   -5169.02248722 Ry
     estimated scf accuracy    <       0.02905603 Ry

     total magnetization       =     3.00 Bohr mag/cell
     absolute magnetization    =     3.04 Bohr mag/cell

     iteration #  5     ecut=    60.00 Ry     beta= 0.70
     Davidson diagonalization with overlap
     ethr =  1.98E-05,  avg # of iterations =  2.0

     total cpu time spent up to now is      357.5 secs

     total energy              =   -5169.01402046 Ry
     Harris-Foulkes estimate   =   -5169.01716639 Ry
     estimated scf accuracy    <       0.01829473 Ry

     total magnetization       =     3.00 Bohr mag/cell
     absolute magnetization    =     3.06 Bohr mag/cell

     iteration #  6     ecut=    60.00 Ry     beta= 0.70
     Davidson diagonalization with overlap
     ethr =  1.24E-05,  avg # of iterations =  5.5

     total cpu time spent up to now is      419.5 secs

     total energy              =   -5169.01072875 Ry
     Harris-Foulkes estimate   =   -5169.01446304 Ry
     estimated scf accuracy    <       0.01312927 Ry

     total magnetization       =     3.00 Bohr mag/cell
     absolute magnetization    =     3.08 Bohr mag/cell

     iteration #  7     ecut=    60.00 Ry     beta= 0.70
     Davidson diagonalization with overlap
     ethr =  8.93E-06,  avg # of iterations =  8.5

     total cpu time spent up to now is      485.1 secs

     total energy              =   -5169.00974916 Ry
     Harris-Foulkes estimate   =   -5169.01155487 Ry
     estimated scf accuracy    <       0.00780549 Ry

     total magnetization       =     3.00 Bohr mag/cell
     absolute magnetization    =     3.08 Bohr mag/cell

     iteration #  8     ecut=    60.00 Ry     beta= 0.70
     Davidson diagonalization with overlap
     ethr =  5.31E-06,  avg # of iterations =  7.0

     total cpu time spent up to now is      549.2 secs

     total energy              =   -5169.00943256 Ry
     Harris-Foulkes estimate   =   -5169.01004036 Ry
     estimated scf accuracy    <       0.00455222 Ry

     total magnetization       =     3.00 Bohr mag/cell
     absolute magnetization    =     3.09 Bohr mag/cell

     iteration #  9     ecut=    60.00 Ry     beta= 0.70
     Davidson diagonalization with overlap
     ethr =  3.10E-06,  avg # of iterations = 15.0

     total cpu time spent up to now is      618.8 secs

     total energy              =   -5169.01088190 Ry
     Harris-Foulkes estimate   =   -5169.00985542 Ry
     estimated scf accuracy    <       0.00255804 Ry

     total magnetization       =     3.00 Bohr mag/cell
     absolute magnetization    =     3.08 Bohr mag/cell

     iteration # 10     ecut=    60.00 Ry     beta= 0.70
     Davidson diagonalization with overlap
     ethr =  1.74E-06,  avg # of iterations = 10.0

     total cpu time spent up to now is      683.7 secs

     total energy              =   -5169.01248658 Ry
     Harris-Foulkes estimate   =   -5169.01106407 Ry
     estimated scf accuracy    <       0.00178794 Ry

     total magnetization       =     3.00 Bohr mag/cell
     absolute magnetization    =     3.07 Bohr mag/cell

     iteration # 11     ecut=    60.00 Ry     beta= 0.70
     Davidson diagonalization with overlap
     ethr =  1.22E-06,  avg # of iterations = 10.0

     total cpu time spent up to now is      750.5 secs

     total energy              =   -5169.01367024 Ry
     Harris-Foulkes estimate   =   -5169.01262249 Ry
     estimated scf accuracy    <       0.00077301 Ry

     total magnetization       =     3.00 Bohr mag/cell
     absolute magnetization    =     3.08 Bohr mag/cell

     iteration # 12     ecut=    60.00 Ry     beta= 0.70
     Davidson diagonalization with overlap
     ethr =  5.26E-07,  avg # of iterations = 11.5

     total cpu time spent up to now is      817.0 secs

     total energy              =   -5169.01400104 Ry
     Harris-Foulkes estimate   =   -5169.01373340 Ry
     estimated scf accuracy    <       0.00108683 Ry

     total magnetization       =     3.00 Bohr mag/cell
     absolute magnetization    =     3.08 Bohr mag/cell

     iteration # 13     ecut=    60.00 Ry     beta= 0.70
     Davidson diagonalization with overlap
     ethr =  5.26E-07,  avg # of iterations =  3.0

     total cpu time spent up to now is      878.2 secs

     total energy              =   -5169.01440989 Ry
     Harris-Foulkes estimate   =   -5169.01409105 Ry
     estimated scf accuracy    <       0.00041071 Ry

     total magnetization       =     3.00 Bohr mag/cell
     absolute magnetization    =     3.08 Bohr mag/cell

     iteration # 14     ecut=    60.00 Ry     beta= 0.70
     Davidson diagonalization with overlap
     ethr =  2.79E-07,  avg # of iterations = 10.5

     total cpu time spent up to now is      943.4 secs

     total energy              =   -5169.01452861 Ry
     Harris-Foulkes estimate   =   -5169.01442344 Ry
     estimated scf accuracy    <       0.00020831 Ry

     total magnetization       =     3.00 Bohr mag/cell
     absolute magnetization    =     3.08 Bohr mag/cell

     iteration # 15     ecut=    60.00 Ry     beta= 0.70
     Davidson diagonalization with overlap
     ethr =  1.42E-07,  avg # of iterations =  2.5

     total cpu time spent up to now is     1004.2 secs

     total energy              =   -5169.01455520 Ry
     Harris-Foulkes estimate   =   -5169.01453445 Ry
     estimated scf accuracy    <       0.00010916 Ry

     total magnetization       =     3.00 Bohr mag/cell
     absolute magnetization    =     3.08 Bohr mag/cell

     iteration # 16     ecut=    60.00 Ry     beta= 0.70
     Davidson diagonalization with overlap
     ethr =  7.43E-08,  avg # of iterations = 13.5

     total cpu time spent up to now is     1070.6 secs

     total energy              =   -5169.01461435 Ry
     Harris-Foulkes estimate   =   -5169.01456244 Ry
     estimated scf accuracy    <       0.00005335 Ry

     total magnetization       =     3.00 Bohr mag/cell
     absolute magnetization    =     3.08 Bohr mag/cell

     iteration # 17     ecut=    60.00 Ry     beta= 0.70
     Davidson diagonalization with overlap
     ethr =  3.63E-08,  avg # of iterations =  2.5

     total cpu time spent up to now is     1131.4 secs

     total energy              =   -5169.01467185 Ry
     Harris-Foulkes estimate   =   -5169.01461659 Ry
     estimated scf accuracy    <       0.00002385 Ry

     total magnetization       =     3.00 Bohr mag/cell
     absolute magnetization    =     3.08 Bohr mag/cell

     iteration # 18     ecut=    60.00 Ry     beta= 0.70
     Davidson diagonalization with overlap
     ethr =  1.62E-08,  avg # of iterations = 10.0

     total cpu time spent up to now is     1194.7 secs

     total energy              =   -5169.01470397 Ry
     Harris-Foulkes estimate   =   -5169.01467329 Ry
     estimated scf accuracy    <       0.00001482 Ry

     total magnetization       =     3.00 Bohr mag/cell
     absolute magnetization    =     3.08 Bohr mag/cell

     iteration # 19     ecut=    60.00 Ry     beta= 0.70
     Davidson diagonalization with overlap
     ethr =  1.01E-08,  avg # of iterations =  3.0

     total cpu time spent up to now is     1255.7 secs

     total energy              =   -5169.01470959 Ry
     Harris-Foulkes estimate   =   -5169.01470535 Ry
     estimated scf accuracy    <       0.00000689 Ry

     total magnetization       =     3.00 Bohr mag/cell
     absolute magnetization    =     3.08 Bohr mag/cell

     iteration # 20     ecut=    60.00 Ry     beta= 0.70
     Davidson diagonalization with overlap
     ethr =  4.69E-09,  avg # of iterations =  3.5

     total cpu time spent up to now is     1317.2 secs

     total energy              =   -5169.01471317 Ry
     Harris-Foulkes estimate   =   -5169.01470995 Ry
     estimated scf accuracy    <       0.00000330 Ry

     total magnetization       =     3.00 Bohr mag/cell
     absolute magnetization    =     3.08 Bohr mag/cell

     iteration # 21     ecut=    60.00 Ry     beta= 0.70
     Davidson diagonalization with overlap
     ethr =  2.25E-09,  avg # of iterations =  3.0

     total cpu time spent up to now is     1378.3 secs

     total energy              =   -5169.01471578 Ry
     Harris-Foulkes estimate   =   -5169.01471345 Ry
     estimated scf accuracy    <       0.00000228 Ry

     total magnetization       =     3.00 Bohr mag/cell
     absolute magnetization    =     3.08 Bohr mag/cell

     iteration # 22     ecut=    60.00 Ry     beta= 0.70
     Davidson diagonalization with overlap
     ethr =  1.55E-09,  avg # of iterations =  1.5

     total cpu time spent up to now is     1438.4 secs

     total energy              =   -5169.01471824 Ry
     Harris-Foulkes estimate   =   -5169.01471584 Ry
     estimated scf accuracy    <       0.00000116 Ry

     total magnetization       =     3.00 Bohr mag/cell
     absolute magnetization    =     3.08 Bohr mag/cell

     iteration # 23     ecut=    60.00 Ry     beta= 0.70
     Davidson diagonalization with overlap
     ethr =  7.86E-10,  avg # of iterations =  3.5

     total cpu time spent up to now is     1500.3 secs

     total energy              =   -5169.01471885 Ry
     Harris-Foulkes estimate   =   -5169.01471836 Ry
     estimated scf accuracy    <       0.00000044 Ry

     total magnetization       =     3.00 Bohr mag/cell
     absolute magnetization    =     3.08 Bohr mag/cell

     iteration # 24     ecut=    60.00 Ry     beta= 0.70
     Davidson diagonalization with overlap
     ethr =  2.97E-10,  avg # of iterations =  2.0

     total cpu time spent up to now is     1560.2 secs

     total energy              =   -5169.01471912 Ry
     Harris-Foulkes estimate   =   -5169.01471888 Ry
     estimated scf accuracy    <       0.00000015 Ry

     total magnetization       =     3.00 Bohr mag/cell
     absolute magnetization    =     3.08 Bohr mag/cell

     iteration # 25     ecut=    60.00 Ry     beta= 0.70
     Davidson diagonalization with overlap
     ethr =  1.01E-10,  avg # of iterations =  4.0

     total cpu time spent up to now is     1622.5 secs

     total energy              =   -5169.01471955 Ry
     Harris-Foulkes estimate   =   -5169.01471914 Ry
     estimated scf accuracy    <       0.00000007 Ry

     total magnetization       =     3.00 Bohr mag/cell
     absolute magnetization    =     3.08 Bohr mag/cell

     iteration # 26     ecut=    60.00 Ry     beta= 0.70
     Davidson diagonalization with overlap
     ethr =  4.99E-11,  avg # of iterations =  4.0

     total cpu time spent up to now is     1685.4 secs

     total energy              =   -5169.01471951 Ry
     Harris-Foulkes estimate   =   -5169.01471956 Ry
     estimated scf accuracy    <       0.00000006 Ry

     total magnetization       =     3.00 Bohr mag/cell
     absolute magnetization    =     3.08 Bohr mag/cell

     iteration # 27     ecut=    60.00 Ry     beta= 0.70
     Davidson diagonalization with overlap
     ethr =  3.82E-11,  avg # of iterations =  3.0

     total cpu time spent up to now is     1747.1 secs

     total energy              =   -5169.01471949 Ry
     Harris-Foulkes estimate   =   -5169.01471952 Ry
     estimated scf accuracy    <       0.00000003 Ry

     total magnetization       =     3.00 Bohr mag/cell
     absolute magnetization    =     3.08 Bohr mag/cell

     iteration # 28     ecut=    60.00 Ry     beta= 0.70
     Davidson diagonalization with overlap
     ethr =  1.81E-11,  avg # of iterations =  2.5

     total cpu time spent up to now is     1807.9 secs

     total energy              =   -5169.01471955 Ry
     Harris-Foulkes estimate   =   -5169.01471949 Ry
     estimated scf accuracy    <       0.00000002 Ry

     total magnetization       =     3.00 Bohr mag/cell
     absolute magnetization    =     3.08 Bohr mag/cell

     iteration # 29     ecut=    60.00 Ry     beta= 0.70
     Davidson diagonalization with overlap
     ethr =  1.27E-11,  avg # of iterations =  3.5
 
     Magnetic moment per site:
     atom:    1    charge:    9.5805    magn:    0.0878    constr:    0.0000
     atom:    2    charge:    9.5811    magn:    0.0867    constr:    0.0000
     atom:    3    charge:    9.5818    magn:    0.0855    constr:    0.0000
     atom:    4    charge:    9.5812    magn:    0.0865    constr:    0.0000
     atom:    5    charge:    9.5811    magn:    0.0867    constr:    0.0000
     atom:    6    charge:    9.5805    magn:    0.0878    constr:    0.0000
     atom:    7    charge:    9.5808    magn:    0.0873    constr:    0.0000
     atom:    8    charge:   12.3517    magn:   -0.0040    constr:    0.0000
     atom:    9    charge:    9.5816    magn:    0.0857    constr:    0.0000
     atom:   10    charge:    9.5809    magn:    0.0873    constr:    0.0000
     atom:   11    charge:    9.5817    magn:    0.0855    constr:    0.0000
     atom:   12    charge:    9.5812    magn:    0.0865    constr:    0.0000
     atom:   13    charge:    9.5816    magn:    0.0857    constr:    0.0000

     total cpu time spent up to now is     1868.2 secs

     End of self-consistent calculation

 ------ SPIN UP ------------


          k = 0.0000 0.0000 0.0000 (105829 PWs)   bands (ev):

   -26.8649 -26.8645 -26.8644 -26.8640 -26.8637 -15.6080  -9.1448  -9.1447
    -9.1444  -7.8706  -7.8701  -7.8682  -7.8658  -7.8650  -7.8482  -7.8467
    -7.8451  -7.8445  -7.6602  -7.6601  -7.6595  -7.5881  -7.5604  -7.5602
    -7.5598  -7.5591  -7.3596  -7.3595  -7.3592  -7.2362  -7.2353  -7.2345
    -7.2333  -7.2320  -7.0311  -7.0304  -7.0300  -7.0291  -7.0287  -6.8827
    -6.8824  -6.8815  -6.8806  -6.8797  -6.8615  -6.8592  -6.8585  -6.6772
    -6.6756  -6.6746  -6.6727  -6.5435  -6.5421  -6.5415  -6.5403  -6.5396
    -6.4588  -6.4575  -6.4573  -6.4527  -6.4511  -6.4506  -6.4485  -6.2531
    -6.2527  -6.2516  -5.8200  -5.8183  -5.8176  -5.1180  -3.4228  -3.4184
    -3.4151  -3.4083  -3.4040  -2.1961  -2.1959  -2.1944  -1.2798  -1.2781
    -1.2753  -0.8054  -0.8007  -0.7946  -0.7944  -0.2375   0.4163   0.4178
     0.4891

     occupation numbers 
     1.0000   1.0000   1.0000   1.0000   1.0000   1.0000   1.0000   1.0000
     1.0000   1.0000   1.0000   1.0000   1.0000   1.0000   1.0000   1.0000
     1.0000   1.0000   1.0000   1.0000   1.0000   1.0000   1.0000   1.0000
     1.0000   1.0000   1.0000   1.0000   1.0000   1.0000   1.0000   1.0000
     1.0000   1.0000   1.0000   1.0000   1.0000   1.0000   1.0000   1.0000
     1.0000   1.0000   1.0000   1.0000   1.0000   1.0000   1.0000   1.0000
     1.0000   1.0000   1.0000   1.0000   1.0000   1.0000   1.0000   1.0000
     1.0000   1.0000   1.0000   1.0000   1.0000   1.0000   1.0000   1.0000
     1.0000   1.0000   1.0000   1.0000   1.0000   1.0000   1.0000   1.0000
     1.0000   1.0000   1.0000   0.0000   0.0000   0.0000   0.0000   0.0000
     0.0000   0.0000   0.0000   0.0000   0.0000   0.0000   0.0000   0.0000
     0.0000

 ------ SPIN DOWN ----------


          k = 0.0000 0.0000 0.0000 (105829 PWs)   bands (ev):

   -26.8645 -26.8644 -26.8644 -26.8643 -26.8642 -15.5948  -9.0766  -9.0763
    -9.0759  -7.7986  -7.7979  -7.7974  -7.7969  -7.7961  -7.7818  -7.7810
    -7.7804  -7.7803  -7.5747  -7.5745  -7.5739  -7.4868  -7.4866  -7.4864
    -7.4860  -7.4609  -7.2724  -7.2721  -7.2715  -7.1682  -7.1679  -7.1675
    -7.1670  -7.1665  -6.9700  -6.9697  -6.9695  -6.9689  -6.9685  -6.8348
    -6.8346  -6.8331  -6.8328  -6.8318  -6.8202  -6.8187  -6.8182  -6.6138
    -6.6130  -6.6128  -6.6122  -6.4848  -6.4840  -6.4836  -6.4829  -6.4825
    -6.4045  -6.4034  -6.4033  -6.3918  -6.3915  -6.3913  -6.3906  -6.2041
    -6.2038  -6.2032  -5.6941  -5.6939  -5.6937  -4.9674  -3.1856  -3.1843
    -3.1824  -3.1813  -3.1799  -2.0439  -2.0438  -2.0434  -1.0749  -1.0736
    -1.0724  -0.5408  -0.5385  -0.5366  -0.5351  -0.1080   0.5759   0.5796
     0.6703

     occupation numbers 
     1.0000   1.0000   1.0000   1.0000   1.0000   1.0000   1.0000   1.0000
     1.0000   1.0000   1.0000   1.0000   1.0000   1.0000   1.0000   1.0000
     1.0000   1.0000   1.0000   1.0000   1.0000   1.0000   1.0000   1.0000
     1.0000   1.0000   1.0000   1.0000   1.0000   1.0000   1.0000   1.0000
     1.0000   1.0000   1.0000   1.0000   1.0000   1.0000   1.0000   1.0000
     1.0000   1.0000   1.0000   1.0000   1.0000   1.0000   1.0000   1.0000
     1.0000   1.0000   1.0000   1.0000   1.0000   1.0000   1.0000   1.0000
     1.0000   1.0000   1.0000   1.0000   1.0000   1.0000   1.0000   1.0000
     1.0000   1.0000   1.0000   1.0000   1.0000   1.0000   0.4737   0.4394
     0.3906   0.3651   0.3311   0.0000   0.0000   0.0000   0.0000   0.0000
     0.0000   0.0000   0.0000   0.0000   0.0000   0.0000   0.0000   0.0000
     0.0000

     the Fermi energy is    -3.1866 ev

!    total energy              =   -5169.01471960 Ry
     Harris-Foulkes estimate   =   -5169.01471956 Ry
     estimated scf accuracy    <          7.9E-09 Ry

     total all-electron energy =   -170648.065381 Ry

     The total energy is the sum of the following terms:

     one-electron contribution =   -3713.52585990 Ry
     hartree contribution      =    1951.79645141 Ry
     xc contribution           =    -459.74789643 Ry
     ewald contribution        =     958.99408003 Ry
     one-center paw contrib.   =   -3906.52915819 Ry
      -> PAW hartree energy AE =      66.75159757 Ry
      -> PAW hartree energy PS =     -66.60433457 Ry
      -> PAW xc energy AE      =    -297.85647454 Ry
      -> PAW xc energy PS      =      35.21416442 Ry
      -> total E_H with PAW    =    1951.94371440 Ry
      -> total E_XC with PAW   =    -722.39020654 Ry
     smearing contrib. (-TS)   =      -0.00233652 Ry

     total magnetization       =     3.00 Bohr mag/cell
     absolute magnetization    =     3.08 Bohr mag/cell

     convergence has been achieved in  29 iterations

     Writing output data file ./tmp/ag12Bic.save/
 
     init_run     :     33.73s CPU     35.31s WALL (       1 calls)
     electrons    :   1762.98s CPU   1829.35s WALL (       1 calls)

     Called by init_run:
     wfcinit      :      9.05s CPU      9.21s WALL (       1 calls)
     wfcinit:atom :      0.06s CPU      0.08s WALL (       2 calls)
     wfcinit:wfcr :      8.84s CPU      8.93s WALL (       2 calls)
     potinit      :      7.08s CPU      7.39s WALL (       1 calls)
     hinit0       :      3.08s CPU      3.18s WALL (       1 calls)

     Called by electrons:
     c_bands      :    539.25s CPU    546.59s WALL (      29 calls)
     sum_band     :    720.63s CPU    750.49s WALL (      29 calls)
     v_of_rho     :    127.25s CPU    130.07s WALL (      30 calls)
     v_h          :      8.33s CPU      8.38s WALL (      30 calls)
     v_xc         :    118.92s CPU    121.69s WALL (      30 calls)
     newd         :    253.24s CPU    278.38s WALL (      30 calls)
     PAW_pot      :     38.80s CPU     39.13s WALL (      30 calls)
     mix_rho      :     76.18s CPU     77.55s WALL (      29 calls)

     Called by c_bands:
     init_us_2    :      3.20s CPU      3.28s WALL (     118 calls)
     regterg      :    522.16s CPU    529.28s WALL (      58 calls)

     Called by sum_band:
     sum_band:bec :      0.03s CPU      0.03s WALL (      58 calls)
     addusdens    :    594.49s CPU    623.64s WALL (      29 calls)

     Called by *egterg:
     h_psi        :    413.09s CPU    415.23s WALL (     386 calls)
     s_psi        :     27.75s CPU     27.81s WALL (     386 calls)
     g_psi        :      0.93s CPU      0.94s WALL (     326 calls)
     rdiaghg      :     10.47s CPU     11.03s WALL (     384 calls)
     regterg:over :     28.89s CPU     28.96s WALL (     326 calls)
     regterg:upda :     25.15s CPU     25.33s WALL (     326 calls)
     regterg:last :      7.81s CPU      7.84s WALL (      58 calls)
     rdiaghg:chol :      0.37s CPU      0.38s WALL (     384 calls)
     rdiaghg:inve :      0.30s CPU      0.30s WALL (     384 calls)
     rdiaghg:para :      0.90s CPU      0.91s WALL (     768 calls)

     Called by h_psi:
     h_psi:calbec :     22.24s CPU     22.32s WALL (     386 calls)
     vloc_psi     :    360.55s CPU    362.50s WALL (     386 calls)
     add_vuspsi   :     28.24s CPU     28.34s WALL (     386 calls)

     General routines
     calbec       :     29.14s CPU     29.23s WALL (     444 calls)
     fft          :    124.46s CPU    125.15s WALL (     623 calls)
     ffts         :     37.11s CPU     37.38s WALL (     720 calls)
     fftw         :    293.43s CPU    295.07s WALL (   14668 calls)
     interpolate  :     17.70s CPU     17.84s WALL (      60 calls)
 
     Parallel routines
     fft_scatt_xy :     75.10s CPU     75.54s WALL (   16011 calls)
     fft_scatt_yz :    131.93s CPU    132.69s WALL (   16011 calls)

     PAW routines
     PAW_pot      :     38.80s CPU     39.13s WALL (      30 calls)
 
     PWSCF        :  30m 1.17s CPU  31m10.59s WALL

 
   This run was terminated on:   0:43:12   5Jun2020            

=------------------------------------------------------------------------------=
   JOB DONE.
=------------------------------------------------------------------------------=
