
     Program PWSCF v.6.5 starts on  5Jun2020 at  0:43:14 

     This program is part of the open-source Quantum ESPRESSO suite
     for quantum simulation of materials; please cite
         "P. Giannozzi et al., J. Phys.:Condens. Matter 21 395502 (2009);
         "P. Giannozzi et al., J. Phys.:Condens. Matter 29 465901 (2017);
          URL http://www.quantum-espresso.org", 
     in publications or presentations arising from this work. More details at
     http://www.quantum-espresso.org/quote

     Parallel version (MPI & OpenMP), running on      24 processor cores
     Number of MPI processes:                24
     Threads/MPI process:                     1

     MPI processes distributed on     1 nodes
     R & G space division:  proc/nbgrp/npool/nimage =      24
     Waiting for input...
     Reading input from standard input

     Current dimensions of program PWSCF are:
     Max number of different atomic species (ntypx) = 10
     Max number of k-points (npk) =  40000
     Max angular momentum in pseudopotentials (lmaxx) =  3
               file Ag.pbe-dn-kjpaw_psl.0.1.UPF: wavefunction(s)  5S 5P 4D renormalized
               file Bi.pbe-dn-kjpaw_psl.1.0.0.UPF: wavefunction(s)  6P 5D renormalized

     gamma-point specific algorithms are used

     Subspace diagonalization in iterative solution of the eigenvalue problem:
     one sub-group per band group will be used
     scalapack distributed-memory algorithm (size of sub-group:  4*  4 procs)

 
     Parallelization info
     --------------------
     sticks:   dense  smooth     PW     G-vecs:    dense   smooth      PW
     Min        1960     774    193               319845    79634    9960
     Max        1962     776    196               319854    79644    9966
     Sum       47065   18601   4669              7676349  1911329  239097
 


     bravais-lattice index     =            1
     lattice parameter (alat)  =      30.0000  a.u.
     unit-cell volume          =   27000.0000 (a.u.)^3
     number of atoms/cell      =           13
     number of atomic types    =            2
     number of electrons       =       147.00
     number of Kohn-Sham states=           89
     kinetic-energy cutoff     =      65.0000  Ry
     charge density cutoff     =     657.0000  Ry
     convergence threshold     =      1.0E-08
     mixing beta               =       0.7000
     number of iterations used =            8  local-TF  mixing
     Exchange-correlation= SLA PW PBX PBC
                           (   1   4   3   4   0   0   0)

     celldm(1)=  30.000000  celldm(2)=   0.000000  celldm(3)=   0.000000
     celldm(4)=   0.000000  celldm(5)=   0.000000  celldm(6)=   0.000000

     crystal axes: (cart. coord. in units of alat)
               a(1) = (   1.000000   0.000000   0.000000 )  
               a(2) = (   0.000000   1.000000   0.000000 )  
               a(3) = (   0.000000   0.000000   1.000000 )  

     reciprocal axes: (cart. coord. in units 2 pi/alat)
               b(1) = (  1.000000  0.000000  0.000000 )  
               b(2) = (  0.000000  1.000000  0.000000 )  
               b(3) = (  0.000000  0.000000  1.000000 )  


     PseudoPot. # 1 for Ag read from file:
     ../../pseudo/Ag.pbe-dn-kjpaw_psl.0.1.UPF
     MD5 check sum: 2edc915f30f03476250949c796a6a376
     Pseudo is Projector augmented-wave + core cor, Zval = 11.0
     Generated using "atomic" code by A. Dal Corso v.5.0.2 svn rev. 9415
     Shape of augmentation charge: PSQ
     Using radial grid of 1237 points,  6 beta functions with: 
                l(1) =   0
                l(2) =   0
                l(3) =   1
                l(4) =   1
                l(5) =   2
                l(6) =   2
     Q(r) pseudized with 0 coefficients 


     PseudoPot. # 2 for Bi read from file:
     ../../pseudo/Bi.pbe-dn-kjpaw_psl.1.0.0.UPF
     MD5 check sum: 266ded784ae3bc462508ed03f0f37963
     Pseudo is Projector augmented-wave + core cor, Zval = 15.0
     Generated using "atomic" code by A. Dal Corso v.6.2.2
     Shape of augmentation charge: PSQ
     Using radial grid of 1283 points,  6 beta functions with: 
                l(1) =   0
                l(2) =   0
                l(3) =   1
                l(4) =   1
                l(5) =   2
                l(6) =   2
     Q(r) pseudized with 0 coefficients 


     atomic species   valence    mass     pseudopotential
        Ag            11.00   107.87000     Ag( 1.00)
        Bi            15.00   208.98000     Bi( 1.00)

     Starting magnetic structure 
     atomic species   magnetization
        Ag           0.700
        Bi           0.000

     No symmetry found


                                    s                        frac. trans.

      isym =  1     identity                                     

 cryst.   s( 1) = (     1          0          0      )
                  (     0          1          0      )
                  (     0          0          1      )

 cart.    s( 1) = (  1.0000000  0.0000000  0.0000000 )
                  (  0.0000000  1.0000000  0.0000000 )
                  (  0.0000000  0.0000000  1.0000000 )


     point group C_1 (1)    
     there are  1 classes
     the character table:

       E    
A      1.00

     the symmetry operations in each class and the name of the first element:

     E        1
          identity                                               

   Cartesian axes

     site n.     atom                  positions (alat units)
         1           Ag  tau(   1) = (   0.1451756   0.1419011   0.2862562  )
         2           Ag  tau(   2) = (   0.1763615   0.3138643   0.3627289  )
         3           Ag  tau(   3) = (   0.4388654   0.2191273   0.2308980  )
         4           Ag  tau(   4) = (   0.3127132   0.1806092   0.3687629  )
         5           Ag  tau(   5) = (   0.3492308   0.2041399   0.0631595  )
         6           Ag  tau(   6) = (   0.3804237   0.3760970   0.1396875  )
         7           Ag  tau(   7) = (   0.1677285   0.1564006   0.0973732  )
         8           Bi  tau(   8) = (   0.2627855   0.2589986   0.2129311  )
         9           Ag  tau(   9) = (   0.2180991   0.4346439   0.2211261  )
        10           Ag  tau(  10) = (   0.3578268   0.3616059   0.3285138  )
        11           Ag  tau(  11) = (   0.0866983   0.2988510   0.1949738  )
        12           Ag  tau(  12) = (   0.2128451   0.3373894   0.0571239  )
        13           Ag  tau(  13) = (   0.3074386   0.0833371   0.2048065  )

   Crystallographic axes

     site n.     atom                  positions (cryst. coord.)
         1           Ag  tau(   1) = (  0.1451756  0.1419011  0.2862562  )
         2           Ag  tau(   2) = (  0.1763615  0.3138643  0.3627289  )
         3           Ag  tau(   3) = (  0.4388654  0.2191273  0.2308980  )
         4           Ag  tau(   4) = (  0.3127132  0.1806092  0.3687629  )
         5           Ag  tau(   5) = (  0.3492308  0.2041399  0.0631595  )
         6           Ag  tau(   6) = (  0.3804237  0.3760970  0.1396875  )
         7           Ag  tau(   7) = (  0.1677285  0.1564006  0.0973732  )
         8           Bi  tau(   8) = (  0.2627855  0.2589986  0.2129311  )
         9           Ag  tau(   9) = (  0.2180991  0.4346439  0.2211261  )
        10           Ag  tau(  10) = (  0.3578268  0.3616059  0.3285138  )
        11           Ag  tau(  11) = (  0.0866983  0.2988510  0.1949738  )
        12           Ag  tau(  12) = (  0.2128451  0.3373894  0.0571239  )
        13           Ag  tau(  13) = (  0.3074386  0.0833371  0.2048065  )

     number of k points=     1  Fermi-Dirac smearing, width (Ry)=  0.0007
                       cart. coord. in units 2pi/alat
        k(    1) = (   0.0000000   0.0000000   0.0000000), wk =   1.0000000

                       cryst. coord.
        k(    1) = (   0.0000000   0.0000000   0.0000000), wk =   1.0000000

     Dense  grid:  3838175 G-vectors     FFT dimensions: ( 250, 250, 250)

     Smooth grid:   955665 G-vectors     FFT dimensions: ( 160, 160, 160)

     Dynamical RAM for                 wfc:       6.76 MB

     Dynamical RAM for     wfc (w. buffer):      20.28 MB

     Dynamical RAM for           str. fact:       4.88 MB

     Dynamical RAM for           local pot:       0.00 MB

     Dynamical RAM for          nlocal pot:      17.77 MB

     Dynamical RAM for                qrad:      19.61 MB

     Dynamical RAM for          rho,v,vnew:      46.11 MB

     Dynamical RAM for               rhoin:      15.37 MB

     Dynamical RAM for            rho*nmix:      78.09 MB

     Dynamical RAM for           G-vectors:       9.45 MB

     Dynamical RAM for          h,s,v(r/c):       0.18 MB

     Dynamical RAM for          <psi|beta>:       0.16 MB

     Dynamical RAM for                 psi:      27.04 MB

     Dynamical RAM for                hpsi:      27.04 MB

     Dynamical RAM for                spsi:      27.04 MB

     Dynamical RAM for      wfcinit/wfcrot:      18.08 MB

     Dynamical RAM for           addusdens:     485.61 MB

     Estimated static dynamical RAM per process >     250.36 MB

     Estimated max dynamical RAM per process >     735.97 MB

     Estimated total dynamical RAM >      17.25 GB
     Generating pointlists ...
     new r_m :   0.0748 (alat units)  2.2451 (a.u.) for type    1
     new r_m :   0.0748 (alat units)  2.2451 (a.u.) for type    2

     Check: negative core charge=   -0.000001

     Initial potential from superposition of free atoms

     starting charge  146.99440, renormalised to  147.00000
     Starting wfcs are  117 randomized atomic wfcs
     Checking if some PAW data can be deallocated... 
       PAW data deallocated on    2 nodes for type:  1
       PAW data deallocated on   22 nodes for type:  2

     total cpu time spent up to now is       45.0 secs

     Self-consistent Calculation

     iteration #  1     ecut=    65.00 Ry     beta= 0.70
     Davidson diagonalization with overlap
     ethr =  1.00E-02,  avg # of iterations =  3.0

     total cpu time spent up to now is      116.6 secs

     total energy              =   -5168.10022633 Ry
     Harris-Foulkes estimate   =   -5161.98395673 Ry
     estimated scf accuracy    <       6.52503460 Ry

     total magnetization       =     7.00 Bohr mag/cell
     absolute magnetization    =     7.00 Bohr mag/cell

     iteration #  2     ecut=    65.00 Ry     beta= 0.70
     Davidson diagonalization with overlap
     ethr =  4.44E-03,  avg # of iterations =  1.0

     total cpu time spent up to now is      185.1 secs

     total energy              =   -5168.95551274 Ry
     Harris-Foulkes estimate   =   -5168.29170840 Ry
     estimated scf accuracy    <       0.85897181 Ry

     total magnetization       =     3.00 Bohr mag/cell
     absolute magnetization    =     3.33 Bohr mag/cell

     iteration #  3     ecut=    65.00 Ry     beta= 0.70
     Davidson diagonalization with overlap
     ethr =  5.84E-04,  avg # of iterations =  3.0

     total cpu time spent up to now is      255.9 secs

     total energy              =   -5169.01123237 Ry
     Harris-Foulkes estimate   =   -5169.01953745 Ry
     estimated scf accuracy    <       0.05908883 Ry

     total magnetization       =     3.00 Bohr mag/cell
     absolute magnetization    =     3.10 Bohr mag/cell

     iteration #  4     ecut=    65.00 Ry     beta= 0.70
     Davidson diagonalization with overlap
     ethr =  4.02E-05,  avg # of iterations = 12.5

     total cpu time spent up to now is      341.2 secs

     total energy              =   -5169.01967235 Ry
     Harris-Foulkes estimate   =   -5169.02635163 Ry
     estimated scf accuracy    <       0.02987313 Ry

     total magnetization       =     3.00 Bohr mag/cell
     absolute magnetization    =     3.04 Bohr mag/cell

     iteration #  5     ecut=    65.00 Ry     beta= 0.70
     Davidson diagonalization with overlap
     ethr =  2.03E-05,  avg # of iterations =  3.0

     total cpu time spent up to now is      410.9 secs

     total energy              =   -5169.01775673 Ry
     Harris-Foulkes estimate   =   -5169.02115059 Ry
     estimated scf accuracy    <       0.01859848 Ry

     total magnetization       =     3.00 Bohr mag/cell
     absolute magnetization    =     3.06 Bohr mag/cell

     iteration #  6     ecut=    65.00 Ry     beta= 0.70
     Davidson diagonalization with overlap
     ethr =  1.27E-05,  avg # of iterations = 11.0

     total cpu time spent up to now is      484.3 secs

     total energy              =   -5169.01423320 Ry
     Harris-Foulkes estimate   =   -5169.01821929 Ry
     estimated scf accuracy    <       0.01369301 Ry

     total magnetization       =     3.00 Bohr mag/cell
     absolute magnetization    =     3.08 Bohr mag/cell

     iteration #  7     ecut=    65.00 Ry     beta= 0.70
     Davidson diagonalization with overlap
     ethr =  9.31E-06,  avg # of iterations =  7.0

     total cpu time spent up to now is      558.1 secs

     total energy              =   -5169.01250010 Ry
     Harris-Foulkes estimate   =   -5169.01501561 Ry
     estimated scf accuracy    <       0.00798893 Ry

     total magnetization       =     3.00 Bohr mag/cell
     absolute magnetization    =     3.08 Bohr mag/cell

     iteration #  8     ecut=    65.00 Ry     beta= 0.70
     Davidson diagonalization with overlap
     ethr =  5.43E-06,  avg # of iterations = 10.0

     total cpu time spent up to now is      633.8 secs

     total energy              =   -5169.01219275 Ry
     Harris-Foulkes estimate   =   -5169.01289172 Ry
     estimated scf accuracy    <       0.00459397 Ry

     total magnetization       =     3.00 Bohr mag/cell
     absolute magnetization    =     3.10 Bohr mag/cell

     iteration #  9     ecut=    65.00 Ry     beta= 0.70
     Davidson diagonalization with overlap
     ethr =  3.13E-06,  avg # of iterations = 12.5

     total cpu time spent up to now is      711.1 secs

     total energy              =   -5169.01399343 Ry
     Harris-Foulkes estimate   =   -5169.01247862 Ry
     estimated scf accuracy    <       0.00226833 Ry

     total magnetization       =     3.00 Bohr mag/cell
     absolute magnetization    =     3.08 Bohr mag/cell

     iteration # 10     ecut=    65.00 Ry     beta= 0.70
     Davidson diagonalization with overlap
     ethr =  1.54E-06,  avg # of iterations = 10.0

     total cpu time spent up to now is      787.3 secs

     total energy              =   -5169.01507707 Ry
     Harris-Foulkes estimate   =   -5169.01417430 Ry
     estimated scf accuracy    <       0.00174094 Ry

     total magnetization       =     3.00 Bohr mag/cell
     absolute magnetization    =     3.07 Bohr mag/cell

     iteration # 11     ecut=    65.00 Ry     beta= 0.70
     Davidson diagonalization with overlap
     ethr =  1.18E-06,  avg # of iterations = 10.5

     total cpu time spent up to now is      862.6 secs

     total energy              =   -5169.01655319 Ry
     Harris-Foulkes estimate   =   -5169.01518844 Ry
     estimated scf accuracy    <       0.00097817 Ry

     total magnetization       =     3.00 Bohr mag/cell
     absolute magnetization    =     3.08 Bohr mag/cell

     iteration # 12     ecut=    65.00 Ry     beta= 0.70
     Davidson diagonalization with overlap
     ethr =  6.65E-07,  avg # of iterations = 14.0

     total cpu time spent up to now is      940.2 secs

     total energy              =   -5169.01695500 Ry
     Harris-Foulkes estimate   =   -5169.01660636 Ry
     estimated scf accuracy    <       0.00077455 Ry

     total magnetization       =     3.00 Bohr mag/cell
     absolute magnetization    =     3.08 Bohr mag/cell

     iteration # 13     ecut=    65.00 Ry     beta= 0.70
     Davidson diagonalization with overlap
     ethr =  5.27E-07,  avg # of iterations =  4.0

     total cpu time spent up to now is     1011.0 secs

     total energy              =   -5169.01731557 Ry
     Harris-Foulkes estimate   =   -5169.01702892 Ry
     estimated scf accuracy    <       0.00048251 Ry

     total magnetization       =     3.00 Bohr mag/cell
     absolute magnetization    =     3.08 Bohr mag/cell

     iteration # 14     ecut=    65.00 Ry     beta= 0.70
     Davidson diagonalization with overlap
     ethr =  3.28E-07,  avg # of iterations = 10.0

     total cpu time spent up to now is     1084.3 secs

     total energy              =   -5169.01750605 Ry
     Harris-Foulkes estimate   =   -5169.01733583 Ry
     estimated scf accuracy    <       0.00021475 Ry

     total magnetization       =     3.00 Bohr mag/cell
     absolute magnetization    =     3.08 Bohr mag/cell

     iteration # 15     ecut=    65.00 Ry     beta= 0.70
     Davidson diagonalization with overlap
     ethr =  1.46E-07,  avg # of iterations = 13.5

     total cpu time spent up to now is     1160.4 secs

     total energy              =   -5169.01751029 Ry
     Harris-Foulkes estimate   =   -5169.01752130 Ry
     estimated scf accuracy    <       0.00014340 Ry

     total magnetization       =     3.00 Bohr mag/cell
     absolute magnetization    =     3.08 Bohr mag/cell

     iteration # 16     ecut=    65.00 Ry     beta= 0.70
     Davidson diagonalization with overlap
     ethr =  9.76E-08,  avg # of iterations =  2.0

     total cpu time spent up to now is     1229.1 secs

     total energy              =   -5169.01752627 Ry
     Harris-Foulkes estimate   =   -5169.01751453 Ry
     estimated scf accuracy    <       0.00008795 Ry

     total magnetization       =     3.00 Bohr mag/cell
     absolute magnetization    =     3.08 Bohr mag/cell

     iteration # 17     ecut=    65.00 Ry     beta= 0.70
     Davidson diagonalization with overlap
     ethr =  5.98E-08,  avg # of iterations = 12.0

     total cpu time spent up to now is     1306.1 secs

     total energy              =   -5169.01756954 Ry
     Harris-Foulkes estimate   =   -5169.01753969 Ry
     estimated scf accuracy    <       0.00004512 Ry

     total magnetization       =     3.00 Bohr mag/cell
     absolute magnetization    =     3.08 Bohr mag/cell

     iteration # 18     ecut=    65.00 Ry     beta= 0.70
     Davidson diagonalization with overlap
     ethr =  3.07E-08,  avg # of iterations =  2.0

     total cpu time spent up to now is     1375.6 secs

     total energy              =   -5169.01760681 Ry
     Harris-Foulkes estimate   =   -5169.01757167 Ry
     estimated scf accuracy    <       0.00001375 Ry

     total magnetization       =     3.00 Bohr mag/cell
     absolute magnetization    =     3.08 Bohr mag/cell

     iteration # 19     ecut=    65.00 Ry     beta= 0.70
     Davidson diagonalization with overlap
     ethr =  9.36E-09,  avg # of iterations =  8.0

     total cpu time spent up to now is     1448.4 secs

     total energy              =   -5169.01763124 Ry
     Harris-Foulkes estimate   =   -5169.01760853 Ry
     estimated scf accuracy    <       0.00001001 Ry

     total magnetization       =     3.00 Bohr mag/cell
     absolute magnetization    =     3.08 Bohr mag/cell

     iteration # 20     ecut=    65.00 Ry     beta= 0.70
     Davidson diagonalization with overlap
     ethr =  6.81E-09,  avg # of iterations =  3.0

     total cpu time spent up to now is     1517.9 secs

     total energy              =   -5169.01763498 Ry
     Harris-Foulkes estimate   =   -5169.01763241 Ry
     estimated scf accuracy    <       0.00000443 Ry

     total magnetization       =     3.00 Bohr mag/cell
     absolute magnetization    =     3.08 Bohr mag/cell

     iteration # 21     ecut=    65.00 Ry     beta= 0.70
     Davidson diagonalization with overlap
     ethr =  3.01E-09,  avg # of iterations =  3.5

     total cpu time spent up to now is     1588.0 secs

     total energy              =   -5169.01763887 Ry
     Harris-Foulkes estimate   =   -5169.01763526 Ry
     estimated scf accuracy    <       0.00000207 Ry

     total magnetization       =     3.00 Bohr mag/cell
     absolute magnetization    =     3.08 Bohr mag/cell

     iteration # 22     ecut=    65.00 Ry     beta= 0.70
     Davidson diagonalization with overlap
     ethr =  1.41E-09,  avg # of iterations =  4.0

     total cpu time spent up to now is     1659.2 secs

     total energy              =   -5169.01764045 Ry
     Harris-Foulkes estimate   =   -5169.01763912 Ry
     estimated scf accuracy    <       0.00000082 Ry

     total magnetization       =     3.00 Bohr mag/cell
     absolute magnetization    =     3.08 Bohr mag/cell

     iteration # 23     ecut=    65.00 Ry     beta= 0.70
     Davidson diagonalization with overlap
     ethr =  5.61E-10,  avg # of iterations =  2.5

     total cpu time spent up to now is     1728.0 secs

     total energy              =   -5169.01764349 Ry
     Harris-Foulkes estimate   =   -5169.01764049 Ry
     estimated scf accuracy    <       0.00000045 Ry

     total magnetization       =     3.00 Bohr mag/cell
     absolute magnetization    =     3.08 Bohr mag/cell

     iteration # 24     ecut=    65.00 Ry     beta= 0.70
     Davidson diagonalization with overlap
     ethr =  3.03E-10,  avg # of iterations =  4.0

     total cpu time spent up to now is     1799.2 secs

     total energy              =   -5169.01764388 Ry
     Harris-Foulkes estimate   =   -5169.01764355 Ry
     estimated scf accuracy    <       0.00000025 Ry

     total magnetization       =     3.00 Bohr mag/cell
     absolute magnetization    =     3.08 Bohr mag/cell

     iteration # 25     ecut=    65.00 Ry     beta= 0.70
     Davidson diagonalization with overlap
     ethr =  1.69E-10,  avg # of iterations =  2.5

     total cpu time spent up to now is     1868.8 secs

     total energy              =   -5169.01764437 Ry
     Harris-Foulkes estimate   =   -5169.01764390 Ry
     estimated scf accuracy    <       0.00000010 Ry

     total magnetization       =     3.00 Bohr mag/cell
     absolute magnetization    =     3.08 Bohr mag/cell

     iteration # 26     ecut=    65.00 Ry     beta= 0.70
     Davidson diagonalization with overlap
     ethr =  7.11E-11,  avg # of iterations =  4.0

     total cpu time spent up to now is     1940.4 secs

     total energy              =   -5169.01764480 Ry
     Harris-Foulkes estimate   =   -5169.01764438 Ry
     estimated scf accuracy    <       0.00000005 Ry

     total magnetization       =     3.00 Bohr mag/cell
     absolute magnetization    =     3.08 Bohr mag/cell

     iteration # 27     ecut=    65.00 Ry     beta= 0.70
     Davidson diagonalization with overlap
     ethr =  3.68E-11,  avg # of iterations =  3.0

     total cpu time spent up to now is     2011.8 secs

     total energy              =   -5169.01764528 Ry
     Harris-Foulkes estimate   =   -5169.01764481 Ry
     estimated scf accuracy    <       0.00000003 Ry

     total magnetization       =     3.00 Bohr mag/cell
     absolute magnetization    =     3.08 Bohr mag/cell

     iteration # 28     ecut=    65.00 Ry     beta= 0.70
     Davidson diagonalization with overlap
     ethr =  2.20E-11,  avg # of iterations =  4.0

     total cpu time spent up to now is     2086.5 secs

     total energy              =   -5169.01764538 Ry
     Harris-Foulkes estimate   =   -5169.01764529 Ry
     estimated scf accuracy    <       0.00000002 Ry

     total magnetization       =     3.00 Bohr mag/cell
     absolute magnetization    =     3.08 Bohr mag/cell

     iteration # 29     ecut=    65.00 Ry     beta= 0.70
     Davidson diagonalization with overlap
     ethr =  1.33E-11,  avg # of iterations =  2.5
 
     Magnetic moment per site:
     atom:    1    charge:    9.5809    magn:    0.0877    constr:    0.0000
     atom:    2    charge:    9.5814    magn:    0.0867    constr:    0.0000
     atom:    3    charge:    9.5819    magn:    0.0856    constr:    0.0000
     atom:    4    charge:    9.5815    magn:    0.0865    constr:    0.0000
     atom:    5    charge:    9.5813    magn:    0.0867    constr:    0.0000
     atom:    6    charge:    9.5807    magn:    0.0877    constr:    0.0000
     atom:    7    charge:    9.5811    magn:    0.0872    constr:    0.0000
     atom:    8    charge:   12.3514    magn:   -0.0040    constr:    0.0000
     atom:    9    charge:    9.5819    magn:    0.0858    constr:    0.0000
     atom:   10    charge:    9.5812    magn:    0.0872    constr:    0.0000
     atom:   11    charge:    9.5819    magn:    0.0856    constr:    0.0000
     atom:   12    charge:    9.5815    magn:    0.0865    constr:    0.0000
     atom:   13    charge:    9.5818    magn:    0.0858    constr:    0.0000

     total cpu time spent up to now is     2154.3 secs

     End of self-consistent calculation

 ------ SPIN UP ------------


          k = 0.0000 0.0000 0.0000 (119549 PWs)   bands (ev):

   -26.8597 -26.8594 -26.8592 -26.8588 -26.8585 -15.6018  -9.1382  -9.1381
    -9.1378  -7.8643  -7.8637  -7.8619  -7.8590  -7.8583  -7.8418  -7.8403
    -7.8386  -7.8379  -7.6539  -7.6537  -7.6532  -7.5820  -7.5540  -7.5538
    -7.5533  -7.5525  -7.3533  -7.3531  -7.3528  -7.2300  -7.2291  -7.2282
    -7.2267  -7.2256  -7.0247  -7.0240  -7.0235  -7.0226  -7.0223  -6.8763
    -6.8759  -6.8751  -6.8743  -6.8735  -6.8550  -6.8529  -6.8523  -6.6710
    -6.6695  -6.6684  -6.6662  -6.5373  -6.5359  -6.5351  -6.5339  -6.5332
    -6.4524  -6.4512  -6.4511  -6.4464  -6.4447  -6.4441  -6.4422  -6.2466
    -6.2462  -6.2452  -5.8139  -5.8123  -5.8116  -5.1120  -3.4171  -3.4127
    -3.4090  -3.4013  -3.3971  -2.1868  -2.1867  -2.1853  -1.2712  -1.2697
    -1.2671  -0.7959  -0.7906  -0.7845  -0.7839  -0.1936   0.4478   0.4487
     0.5097

     occupation numbers 
     1.0000   1.0000   1.0000   1.0000   1.0000   1.0000   1.0000   1.0000
     1.0000   1.0000   1.0000   1.0000   1.0000   1.0000   1.0000   1.0000
     1.0000   1.0000   1.0000   1.0000   1.0000   1.0000   1.0000   1.0000
     1.0000   1.0000   1.0000   1.0000   1.0000   1.0000   1.0000   1.0000
     1.0000   1.0000   1.0000   1.0000   1.0000   1.0000   1.0000   1.0000
     1.0000   1.0000   1.0000   1.0000   1.0000   1.0000   1.0000   1.0000
     1.0000   1.0000   1.0000   1.0000   1.0000   1.0000   1.0000   1.0000
     1.0000   1.0000   1.0000   1.0000   1.0000   1.0000   1.0000   1.0000
     1.0000   1.0000   1.0000   1.0000   1.0000   1.0000   1.0000   1.0000
     1.0000   1.0000   1.0000   0.0000   0.0000   0.0000   0.0000   0.0000
     0.0000   0.0000   0.0000   0.0000   0.0000   0.0000   0.0000   0.0000
     0.0000

 ------ SPIN DOWN ----------


          k = 0.0000 0.0000 0.0000 (119549 PWs)   bands (ev):

   -26.8594 -26.8593 -26.8593 -26.8592 -26.8591 -15.5887  -9.0700  -9.0697
    -9.0694  -7.7921  -7.7915  -7.7909  -7.7904  -7.7896  -7.7753  -7.7746
    -7.7740  -7.7738  -7.5683  -7.5681  -7.5676  -7.4804  -7.4802  -7.4799
    -7.4796  -7.4546  -7.2660  -7.2657  -7.2652  -7.1618  -7.1616  -7.1611
    -7.1606  -7.1601  -6.9635  -6.9632  -6.9631  -6.9625  -6.9621  -6.8284
    -6.8282  -6.8267  -6.8264  -6.8254  -6.8137  -6.8124  -6.8119  -6.6074
    -6.6067  -6.6064  -6.6058  -6.4785  -6.4777  -6.4772  -6.4765  -6.4762
    -6.3980  -6.3971  -6.3970  -6.3853  -6.3850  -6.3848  -6.3842  -6.1976
    -6.1973  -6.1968  -5.6878  -5.6877  -5.6875  -4.9610  -3.1784  -3.1772
    -3.1750  -3.1738  -3.1724  -2.0329  -2.0328  -2.0324  -1.0649  -1.0638
    -1.0626  -0.5279  -0.5254  -0.5237  -0.5217  -0.0579   0.6169   0.6195
     0.6988

     occupation numbers 
     1.0000   1.0000   1.0000   1.0000   1.0000   1.0000   1.0000   1.0000
     1.0000   1.0000   1.0000   1.0000   1.0000   1.0000   1.0000   1.0000
     1.0000   1.0000   1.0000   1.0000   1.0000   1.0000   1.0000   1.0000
     1.0000   1.0000   1.0000   1.0000   1.0000   1.0000   1.0000   1.0000
     1.0000   1.0000   1.0000   1.0000   1.0000   1.0000   1.0000   1.0000
     1.0000   1.0000   1.0000   1.0000   1.0000   1.0000   1.0000   1.0000
     1.0000   1.0000   1.0000   1.0000   1.0000   1.0000   1.0000   1.0000
     1.0000   1.0000   1.0000   1.0000   1.0000   1.0000   1.0000   1.0000
     1.0000   1.0000   1.0000   1.0000   1.0000   1.0000   0.4775   0.4448
     0.3899   0.3609   0.3268   0.0000   0.0000   0.0000   0.0000   0.0000
     0.0000   0.0000   0.0000   0.0000   0.0000   0.0000   0.0000   0.0000
     0.0000

     the Fermi energy is    -3.1793 ev

!    total energy              =   -5169.01764555 Ry
     Harris-Foulkes estimate   =   -5169.01764539 Ry
     estimated scf accuracy    <          9.9E-09 Ry

     total all-electron energy =   -170648.068307 Ry

     The total energy is the sum of the following terms:

     one-electron contribution =   -3713.60543803 Ry
     hartree contribution      =    1951.87542662 Ry
     xc contribution           =    -459.74903436 Ry
     ewald contribution        =     958.99408003 Ry
     one-center paw contrib.   =   -3906.53034618 Ry
      -> PAW hartree energy AE =      66.75765937 Ry
      -> PAW hartree energy PS =     -66.61037491 Ry
      -> PAW xc energy AE      =    -297.85697231 Ry
      -> PAW xc energy PS      =      35.21467890 Ry
      -> total E_H with PAW    =    1952.02271108 Ry
      -> total E_XC with PAW   =    -722.39132777 Ry
     smearing contrib. (-TS)   =      -0.00233363 Ry

     total magnetization       =     3.00 Bohr mag/cell
     absolute magnetization    =     3.08 Bohr mag/cell

     convergence has been achieved in  29 iterations

     Writing output data file ./tmp/ag12Bic.save/
 
     init_run     :     39.16s CPU     40.90s WALL (       1 calls)
     electrons    :   2035.44s CPU   2109.96s WALL (       1 calls)

     Called by init_run:
     wfcinit      :     10.95s CPU     11.13s WALL (       1 calls)
     wfcinit:atom :      0.06s CPU      0.09s WALL (       2 calls)
     wfcinit:wfcr :     10.71s CPU     10.81s WALL (       2 calls)
     potinit      :      8.13s CPU      8.51s WALL (       1 calls)
     hinit0       :      3.35s CPU      3.45s WALL (       1 calls)

     Called by electrons:
     c_bands      :    655.92s CPU    664.11s WALL (      29 calls)
     sum_band     :    800.79s CPU    834.80s WALL (      29 calls)
     v_of_rho     :    151.68s CPU    154.69s WALL (      30 calls)
     v_h          :     10.49s CPU     10.54s WALL (      30 calls)
     v_xc         :    141.19s CPU    144.15s WALL (      30 calls)
     newd         :    286.32s CPU    314.46s WALL (      30 calls)
     PAW_pot      :     39.15s CPU     39.42s WALL (      30 calls)
     mix_rho      :     90.80s CPU     92.19s WALL (      29 calls)

     Called by c_bands:
     init_us_2    :      3.78s CPU      3.85s WALL (     118 calls)
     regterg      :    636.66s CPU    644.67s WALL (      58 calls)

     Called by sum_band:
     sum_band:bec :      0.03s CPU      0.03s WALL (      58 calls)
     addusdens    :    646.09s CPU    679.35s WALL (      29 calls)

     Called by *egterg:
     h_psi        :    507.77s CPU    510.13s WALL (     424 calls)
     s_psi        :     32.80s CPU     32.87s WALL (     424 calls)
     g_psi        :      1.08s CPU      1.09s WALL (     364 calls)
     rdiaghg      :     11.75s CPU     12.40s WALL (     422 calls)
     regterg:over :     35.13s CPU     35.21s WALL (     364 calls)
     regterg:upda :     31.27s CPU     31.46s WALL (     364 calls)
     regterg:last :      8.69s CPU      8.72s WALL (      58 calls)
     rdiaghg:chol :      0.40s CPU      0.42s WALL (     422 calls)
     rdiaghg:inve :      0.33s CPU      0.34s WALL (     422 calls)
     rdiaghg:para :      1.03s CPU      1.04s WALL (     844 calls)

     Called by h_psi:
     h_psi:calbec :     26.33s CPU     26.40s WALL (     424 calls)
     vloc_psi     :    445.08s CPU    447.28s WALL (     424 calls)
     add_vuspsi   :     34.04s CPU     34.12s WALL (     424 calls)

     General routines
     calbec       :     34.11s CPU     34.20s WALL (     482 calls)
     fft          :    159.45s CPU    160.24s WALL (     623 calls)
     ffts         :     42.24s CPU     42.46s WALL (     714 calls)
     fftw         :    360.52s CPU    362.37s WALL (   14876 calls)
     interpolate  :     22.40s CPU     22.55s WALL (      60 calls)
 
     Parallel routines
     fft_scatt_xy :     90.10s CPU     90.58s WALL (   16213 calls)
     fft_scatt_yz :    172.72s CPU    173.58s WALL (   16213 calls)

     PAW routines
     PAW_pot      :     39.15s CPU     39.42s WALL (      30 calls)
 
     PWSCF        :  34m39.12s CPU  35m57.04s WALL

 
   This run was terminated on:   1:19:11   5Jun2020            

=------------------------------------------------------------------------------=
   JOB DONE.
=------------------------------------------------------------------------------=
