
     Program PWSCF v.6.5 starts on  4Jun2020 at 12:14: 7 

     This program is part of the open-source Quantum ESPRESSO suite
     for quantum simulation of materials; please cite
         "P. Giannozzi et al., J. Phys.:Condens. Matter 21 395502 (2009);
         "P. Giannozzi et al., J. Phys.:Condens. Matter 29 465901 (2017);
          URL http://www.quantum-espresso.org", 
     in publications or presentations arising from this work. More details at
     http://www.quantum-espresso.org/quote

     Parallel version (MPI & OpenMP), running on      24 processor cores
     Number of MPI processes:                24
     Threads/MPI process:                     1

     MPI processes distributed on     1 nodes
     R & G space division:  proc/nbgrp/npool/nimage =      24
     Waiting for input...
     Reading input from standard input

     Current dimensions of program PWSCF are:
     Max number of different atomic species (ntypx) = 10
     Max number of k-points (npk) =  40000
     Max angular momentum in pseudopotentials (lmaxx) =  3
               file Ag.pbe-dn-kjpaw_psl.0.1.UPF: wavefunction(s)  5S 5P 4D renormalized

     gamma-point specific algorithms are used

     Subspace diagonalization in iterative solution of the eigenvalue problem:
     one sub-group per band group will be used
     scalapack distributed-memory algorithm (size of sub-group:  4*  4 procs)

 
     Parallelization info
     --------------------
     sticks:   dense  smooth     PW     G-vecs:    dense   smooth      PW
     Min         668     518    129                63900    43672    5462
     Max         670     522    132                63914    43678    5472
     Sum       16069   12469   3125              1533827  1048171  131155
 


     bravais-lattice index     =            1
     lattice parameter (alat)  =      35.0000  a.u.
     unit-cell volume          =   42875.0000 (a.u.)^3
     number of atoms/cell      =           13
     number of atomic types    =            1
     number of electrons       =       143.00
     number of Kohn-Sham states=           86
     kinetic-energy cutoff     =      32.0000  Ry
     charge density cutoff     =     165.0000  Ry
     convergence threshold     =      1.0E-08
     mixing beta               =       0.7000
     number of iterations used =            8  local-TF  mixing
     Exchange-correlation= SLA PW PBX PBC
                           (   1   4   3   4   0   0   0)

     celldm(1)=  35.000000  celldm(2)=   0.000000  celldm(3)=   0.000000
     celldm(4)=   0.000000  celldm(5)=   0.000000  celldm(6)=   0.000000

     crystal axes: (cart. coord. in units of alat)
               a(1) = (   1.000000   0.000000   0.000000 )  
               a(2) = (   0.000000   1.000000   0.000000 )  
               a(3) = (   0.000000   0.000000   1.000000 )  

     reciprocal axes: (cart. coord. in units 2 pi/alat)
               b(1) = (  1.000000  0.000000  0.000000 )  
               b(2) = (  0.000000  1.000000  0.000000 )  
               b(3) = (  0.000000  0.000000  1.000000 )  


     PseudoPot. # 1 for Ag read from file:
     ../../pseudo/Ag.pbe-dn-kjpaw_psl.0.1.UPF
     MD5 check sum: 2edc915f30f03476250949c796a6a376
     Pseudo is Projector augmented-wave + core cor, Zval = 11.0
     Generated using "atomic" code by A. Dal Corso v.5.0.2 svn rev. 9415
     Shape of augmentation charge: PSQ
     Using radial grid of 1237 points,  6 beta functions with: 
                l(1) =   0
                l(2) =   0
                l(3) =   1
                l(4) =   1
                l(5) =   2
                l(6) =   2
     Q(r) pseudized with 0 coefficients 


     atomic species   valence    mass     pseudopotential
        Ag            11.00   107.87000     Ag( 1.00)

     Starting magnetic structure 
     atomic species   magnetization
        Ag           0.700

     No symmetry found


                                    s                        frac. trans.

      isym =  1     identity                                     

 cryst.   s( 1) = (     1          0          0      )
                  (     0          1          0      )
                  (     0          0          1      )

 cart.    s( 1) = (  1.0000000  0.0000000  0.0000000 )
                  (  0.0000000  1.0000000  0.0000000 )
                  (  0.0000000  0.0000000  1.0000000 )


     point group C_1 (1)    
     there are  1 classes
     the character table:

       E    
A      1.00

     the symmetry operations in each class and the name of the first element:

     E        1
          identity                                               

   Cartesian axes

     site n.     atom                  positions (alat units)
         1           Ag  tau(   1) = (   0.1278629   0.1250477   0.2432225  )
         2           Ag  tau(   2) = (   0.1536725   0.2674206   0.3065817  )
         3           Ag  tau(   3) = (   0.3710579   0.1889897   0.1974169  )
         4           Ag  tau(   4) = (   0.2665997   0.1570795   0.3115675  )
         5           Ag  tau(   5) = (   0.2968259   0.1765535   0.0585099  )
         6           Ag  tau(   6) = (   0.3226335   0.3189585   0.1218395  )
         7           Ag  tau(   7) = (   0.1465734   0.1370453   0.0868116  )
         8           Ag  tau(   8) = (   0.2252506   0.2220012   0.1825247  )
         9           Ag  tau(   9) = (   0.1882206   0.3674496   0.1892816  )
        10           Ag  tau(  10) = (   0.3039207   0.3069714   0.2782028  )
        11           Ag  tau(  11) = (   0.0794525   0.2549775   0.1676399  )
        12           Ag  tau(  12) = (   0.1838862   0.2869323   0.0534881  )
        13           Ag  tau(  13) = (   0.2622081   0.0765435   0.1757773  )

   Crystallographic axes

     site n.     atom                  positions (cryst. coord.)
         1           Ag  tau(   1) = (  0.1278629  0.1250477  0.2432225  )
         2           Ag  tau(   2) = (  0.1536725  0.2674206  0.3065817  )
         3           Ag  tau(   3) = (  0.3710579  0.1889897  0.1974169  )
         4           Ag  tau(   4) = (  0.2665997  0.1570795  0.3115675  )
         5           Ag  tau(   5) = (  0.2968259  0.1765535  0.0585099  )
         6           Ag  tau(   6) = (  0.3226335  0.3189585  0.1218395  )
         7           Ag  tau(   7) = (  0.1465734  0.1370453  0.0868116  )
         8           Ag  tau(   8) = (  0.2252506  0.2220012  0.1825247  )
         9           Ag  tau(   9) = (  0.1882206  0.3674496  0.1892816  )
        10           Ag  tau(  10) = (  0.3039207  0.3069714  0.2782028  )
        11           Ag  tau(  11) = (  0.0794525  0.2549775  0.1676399  )
        12           Ag  tau(  12) = (  0.1838862  0.2869323  0.0534881  )
        13           Ag  tau(  13) = (  0.2622081  0.0765435  0.1757773  )

     number of k points=     1  Fermi-Dirac smearing, width (Ry)=  0.0007
                       cart. coord. in units 2pi/alat
        k(    1) = (   0.0000000   0.0000000   0.0000000), wk =   1.0000000

                       cryst. coord.
        k(    1) = (   0.0000000   0.0000000   0.0000000), wk =   1.0000000

     Dense  grid:   766914 G-vectors     FFT dimensions: ( 144, 144, 144)

     Smooth grid:   524086 G-vectors     FFT dimensions: ( 128, 128, 128)

     Dynamical RAM for                 wfc:       3.58 MB

     Dynamical RAM for     wfc (w. buffer):      10.75 MB

     Dynamical RAM for           str. fact:       0.49 MB

     Dynamical RAM for           local pot:       0.00 MB

     Dynamical RAM for          nlocal pot:       9.75 MB

     Dynamical RAM for                qrad:       5.73 MB

     Dynamical RAM for          rho,v,vnew:       8.62 MB

     Dynamical RAM for               rhoin:       2.87 MB

     Dynamical RAM for            rho*nmix:      15.60 MB

     Dynamical RAM for           G-vectors:       2.00 MB

     Dynamical RAM for          h,s,v(r/c):       0.17 MB

     Dynamical RAM for          <psi|beta>:       0.15 MB

     Dynamical RAM for                 psi:      14.33 MB

     Dynamical RAM for                hpsi:      14.33 MB

     Dynamical RAM for                spsi:      14.33 MB

     Dynamical RAM for      wfcinit/wfcrot:      10.06 MB

     Dynamical RAM for           addusdens:      97.53 MB

     Estimated static dynamical RAM per process >      62.48 MB

     Estimated max dynamical RAM per process >     160.01 MB

     Estimated total dynamical RAM >       3.75 GB
     Generating pointlists ...
     new r_m :   0.0620 (alat units)  2.1687 (a.u.) for type    1

     Check: negative core charge=   -0.000006

     Initial potential from superposition of free atoms

     starting charge  142.99482, renormalised to  143.00000
     Starting wfcs are  117 randomized atomic wfcs
     Checking if some PAW data can be deallocated... 

     total cpu time spent up to now is       12.4 secs

     Self-consistent Calculation

     iteration #  1     ecut=    32.00 Ry     beta= 0.70
     Davidson diagonalization with overlap
     ethr =  1.00E-02,  avg # of iterations =  3.0

     total cpu time spent up to now is       30.5 secs

     total energy              =   -4617.19303505 Ry
     Harris-Foulkes estimate   =   -4610.27067380 Ry
     estimated scf accuracy    <       7.32911327 Ry

     total magnetization       =     5.00 Bohr mag/cell
     absolute magnetization    =     5.00 Bohr mag/cell

     iteration #  2     ecut=    32.00 Ry     beta= 0.70
     Davidson diagonalization with overlap
     ethr =  5.13E-03,  avg # of iterations =  1.0

     total cpu time spent up to now is       46.9 secs

     total energy              =   -4617.93402949 Ry
     Harris-Foulkes estimate   =   -4617.29878754 Ry
     estimated scf accuracy    <       0.95689749 Ry

     total magnetization       =     5.00 Bohr mag/cell
     absolute magnetization    =     5.02 Bohr mag/cell

     iteration #  3     ecut=    32.00 Ry     beta= 0.70
     Davidson diagonalization with overlap
     ethr =  6.69E-04,  avg # of iterations =  3.0

     total cpu time spent up to now is       64.1 secs

     total energy              =   -4617.99760850 Ry
     Harris-Foulkes estimate   =   -4618.00768493 Ry
     estimated scf accuracy    <       0.07388532 Ry

     total magnetization       =     5.00 Bohr mag/cell
     absolute magnetization    =     5.04 Bohr mag/cell

     iteration #  4     ecut=    32.00 Ry     beta= 0.70
     Davidson diagonalization with overlap
     ethr =  5.17E-05,  avg # of iterations =  9.5

     total cpu time spent up to now is       87.9 secs

     total energy              =   -4618.01289689 Ry
     Harris-Foulkes estimate   =   -4618.01751362 Ry
     estimated scf accuracy    <       0.03188962 Ry

     total magnetization       =     5.00 Bohr mag/cell
     absolute magnetization    =     5.11 Bohr mag/cell

     iteration #  5     ecut=    32.00 Ry     beta= 0.70
     Davidson diagonalization with overlap
     c_bands:  1 eigenvalues not converged
     ethr =  2.23E-05,  avg # of iterations = 11.0

     total cpu time spent up to now is      106.9 secs

     total energy              =   -4618.01137520 Ry
     Harris-Foulkes estimate   =   -4618.01460839 Ry
     estimated scf accuracy    <       0.01762850 Ry

     total magnetization       =     5.00 Bohr mag/cell
     absolute magnetization    =     5.17 Bohr mag/cell

     iteration #  6     ecut=    32.00 Ry     beta= 0.70
     Davidson diagonalization with overlap
     ethr =  1.23E-05,  avg # of iterations = 13.0

     total cpu time spent up to now is      126.9 secs

     total energy              =   -4618.01033181 Ry
     Harris-Foulkes estimate   =   -4618.01245428 Ry
     estimated scf accuracy    <       0.01080386 Ry

     total magnetization       =     5.00 Bohr mag/cell
     absolute magnetization    =     5.24 Bohr mag/cell

     iteration #  7     ecut=    32.00 Ry     beta= 0.70
     Davidson diagonalization with overlap
     ethr =  7.56E-06,  avg # of iterations =  8.0

     total cpu time spent up to now is      145.2 secs

     total energy              =   -4618.00898637 Ry
     Harris-Foulkes estimate   =   -4618.01110121 Ry
     estimated scf accuracy    <       0.00593828 Ry

     total magnetization       =     5.00 Bohr mag/cell
     absolute magnetization    =     5.20 Bohr mag/cell

     iteration #  8     ecut=    32.00 Ry     beta= 0.70
     Davidson diagonalization with overlap
     c_bands:  1 eigenvalues not converged
     ethr =  4.15E-06,  avg # of iterations = 13.5

     total cpu time spent up to now is      165.1 secs

     total energy              =   -4618.00941037 Ry
     Harris-Foulkes estimate   =   -4618.00925350 Ry
     estimated scf accuracy    <       0.00367723 Ry

     total magnetization       =     5.00 Bohr mag/cell
     absolute magnetization    =     5.21 Bohr mag/cell

     iteration #  9     ecut=    32.00 Ry     beta= 0.70
     Davidson diagonalization with overlap
     ethr =  2.57E-06,  avg # of iterations =  6.5

     total cpu time spent up to now is      184.7 secs

     total energy              =   -4618.00951607 Ry
     Harris-Foulkes estimate   =   -4618.00964642 Ry
     estimated scf accuracy    <       0.00186265 Ry

     total magnetization       =     5.00 Bohr mag/cell
     absolute magnetization    =     5.21 Bohr mag/cell

     iteration # 10     ecut=    32.00 Ry     beta= 0.70
     Davidson diagonalization with overlap
     ethr =  1.30E-06,  avg # of iterations =  5.0

     total cpu time spent up to now is      203.1 secs

     total energy              =   -4618.00952770 Ry
     Harris-Foulkes estimate   =   -4618.00958354 Ry
     estimated scf accuracy    <       0.00099909 Ry

     total magnetization       =     5.00 Bohr mag/cell
     absolute magnetization    =     5.20 Bohr mag/cell

     iteration # 11     ecut=    32.00 Ry     beta= 0.70
     Davidson diagonalization with overlap
     ethr =  6.99E-07,  avg # of iterations =  5.0

     total cpu time spent up to now is      221.2 secs

     total energy              =   -4618.00958472 Ry
     Harris-Foulkes estimate   =   -4618.00959860 Ry
     estimated scf accuracy    <       0.00062411 Ry

     total magnetization       =     5.00 Bohr mag/cell
     absolute magnetization    =     5.20 Bohr mag/cell

     iteration # 12     ecut=    32.00 Ry     beta= 0.70
     Davidson diagonalization with overlap
     ethr =  4.36E-07,  avg # of iterations =  1.0

     total cpu time spent up to now is      237.6 secs

     total energy              =   -4618.00967533 Ry
     Harris-Foulkes estimate   =   -4618.00959845 Ry
     estimated scf accuracy    <       0.00040640 Ry

     total magnetization       =     5.00 Bohr mag/cell
     absolute magnetization    =     5.21 Bohr mag/cell

     iteration # 13     ecut=    32.00 Ry     beta= 0.70
     Davidson diagonalization with overlap
     ethr =  2.84E-07,  avg # of iterations =  3.0

     total cpu time spent up to now is      255.7 secs

     total energy              =   -4618.00966119 Ry
     Harris-Foulkes estimate   =   -4618.00975321 Ry
     estimated scf accuracy    <       0.00034214 Ry

     total magnetization       =     5.00 Bohr mag/cell
     absolute magnetization    =     5.21 Bohr mag/cell

     iteration # 14     ecut=    32.00 Ry     beta= 0.70
     Davidson diagonalization with overlap
     ethr =  2.39E-07,  avg # of iterations =  2.5

     total cpu time spent up to now is      273.0 secs

     total energy              =   -4618.00970620 Ry
     Harris-Foulkes estimate   =   -4618.00969226 Ry
     estimated scf accuracy    <       0.00011936 Ry

     total magnetization       =     5.00 Bohr mag/cell
     absolute magnetization    =     5.20 Bohr mag/cell

     iteration # 15     ecut=    32.00 Ry     beta= 0.70
     Davidson diagonalization with overlap
     ethr =  8.35E-08,  avg # of iterations =  1.0

     total cpu time spent up to now is      289.4 secs

     total energy              =   -4618.00971581 Ry
     Harris-Foulkes estimate   =   -4618.00970868 Ry
     estimated scf accuracy    <       0.00005133 Ry

     total magnetization       =     5.00 Bohr mag/cell
     absolute magnetization    =     5.20 Bohr mag/cell

     iteration # 16     ecut=    32.00 Ry     beta= 0.70
     Davidson diagonalization with overlap
     ethr =  3.59E-08,  avg # of iterations =  3.0

     total cpu time spent up to now is      306.7 secs

     total energy              =   -4618.00972698 Ry
     Harris-Foulkes estimate   =   -4618.00971932 Ry
     estimated scf accuracy    <       0.00002344 Ry

     total magnetization       =     5.00 Bohr mag/cell
     absolute magnetization    =     5.20 Bohr mag/cell

     iteration # 17     ecut=    32.00 Ry     beta= 0.70
     Davidson diagonalization with overlap
     ethr =  1.64E-08,  avg # of iterations =  1.5

     total cpu time spent up to now is      323.4 secs

     total energy              =   -4618.00973463 Ry
     Harris-Foulkes estimate   =   -4618.00972815 Ry
     estimated scf accuracy    <       0.00000947 Ry

     total magnetization       =     5.00 Bohr mag/cell
     absolute magnetization    =     5.20 Bohr mag/cell

     iteration # 18     ecut=    32.00 Ry     beta= 0.70
     Davidson diagonalization with overlap
     ethr =  6.62E-09,  avg # of iterations =  3.5

     total cpu time spent up to now is      341.2 secs

     total energy              =   -4618.00973189 Ry
     Harris-Foulkes estimate   =   -4618.00973556 Ry
     estimated scf accuracy    <       0.00000608 Ry

     total magnetization       =     5.00 Bohr mag/cell
     absolute magnetization    =     5.20 Bohr mag/cell

     iteration # 19     ecut=    32.00 Ry     beta= 0.70
     Davidson diagonalization with overlap
     ethr =  4.25E-09,  avg # of iterations =  2.5

     total cpu time spent up to now is      358.1 secs

     total energy              =   -4618.00973233 Ry
     Harris-Foulkes estimate   =   -4618.00973219 Ry
     estimated scf accuracy    <       0.00000182 Ry

     total magnetization       =     5.00 Bohr mag/cell
     absolute magnetization    =     5.20 Bohr mag/cell

     iteration # 20     ecut=    32.00 Ry     beta= 0.70
     Davidson diagonalization with overlap
     ethr =  1.27E-09,  avg # of iterations =  3.5

     total cpu time spent up to now is      376.5 secs

     total energy              =   -4618.00973406 Ry
     Harris-Foulkes estimate   =   -4618.00973252 Ry
     estimated scf accuracy    <       0.00000051 Ry

     total magnetization       =     5.00 Bohr mag/cell
     absolute magnetization    =     5.20 Bohr mag/cell

     iteration # 21     ecut=    32.00 Ry     beta= 0.70
     Davidson diagonalization with overlap
     ethr =  3.56E-10,  avg # of iterations =  2.5

     total cpu time spent up to now is      393.9 secs

     total energy              =   -4618.00973432 Ry
     Harris-Foulkes estimate   =   -4618.00973410 Ry
     estimated scf accuracy    <       0.00000017 Ry

     total magnetization       =     5.00 Bohr mag/cell
     absolute magnetization    =     5.20 Bohr mag/cell

     iteration # 22     ecut=    32.00 Ry     beta= 0.70
     Davidson diagonalization with overlap
     ethr =  1.21E-10,  avg # of iterations =  2.5

     total cpu time spent up to now is      411.0 secs

     total energy              =   -4618.00973447 Ry
     Harris-Foulkes estimate   =   -4618.00973433 Ry
     estimated scf accuracy    <       0.00000008 Ry

     total magnetization       =     5.00 Bohr mag/cell
     absolute magnetization    =     5.20 Bohr mag/cell

     iteration # 23     ecut=    32.00 Ry     beta= 0.70
     Davidson diagonalization with overlap
     ethr =  5.36E-11,  avg # of iterations =  2.0

     total cpu time spent up to now is      427.8 secs

     total energy              =   -4618.00973500 Ry
     Harris-Foulkes estimate   =   -4618.00973448 Ry
     estimated scf accuracy    <       0.00000004 Ry

     total magnetization       =     5.00 Bohr mag/cell
     absolute magnetization    =     5.20 Bohr mag/cell

     iteration # 24     ecut=    32.00 Ry     beta= 0.70
     Davidson diagonalization with overlap
     ethr =  2.75E-11,  avg # of iterations =  2.5

     total cpu time spent up to now is      444.8 secs

     total energy              =   -4618.00973519 Ry
     Harris-Foulkes estimate   =   -4618.00973500 Ry
     estimated scf accuracy    <       0.00000002 Ry

     total magnetization       =     5.00 Bohr mag/cell
     absolute magnetization    =     5.20 Bohr mag/cell

     iteration # 25     ecut=    32.00 Ry     beta= 0.70
     Davidson diagonalization with overlap
     ethr =  1.09E-11,  avg # of iterations =  3.5
 
     Magnetic moment per site:
     atom:    1    charge:    9.4159    magn:    0.1129    constr:    0.0000
     atom:    2    charge:    9.4156    magn:    0.1129    constr:    0.0000
     atom:    3    charge:    9.4155    magn:    0.1128    constr:    0.0000
     atom:    4    charge:    9.4158    magn:    0.1128    constr:    0.0000
     atom:    5    charge:    9.4155    magn:    0.1128    constr:    0.0000
     atom:    6    charge:    9.4160    magn:    0.1128    constr:    0.0000
     atom:    7    charge:    9.4158    magn:    0.1128    constr:    0.0000
     atom:    8    charge:    9.5332    magn:    0.1423    constr:    0.0000
     atom:    9    charge:    9.4157    magn:    0.1128    constr:    0.0000
     atom:   10    charge:    9.4156    magn:    0.1128    constr:    0.0000
     atom:   11    charge:    9.4159    magn:    0.1128    constr:    0.0000
     atom:   12    charge:    9.4152    magn:    0.1128    constr:    0.0000
     atom:   13    charge:    9.4157    magn:    0.1128    constr:    0.0000

     total cpu time spent up to now is      461.3 secs

     End of self-consistent calculation

 ------ SPIN UP ------------


          k = 0.0000 0.0000 0.0000 ( 65578 PWs)   bands (ev):

    -9.7566  -9.3696  -9.3695  -9.3692  -9.3690  -9.3688  -8.3979  -8.3976
    -8.3975  -8.2540  -8.2537  -8.2534  -8.2530  -8.2130  -8.2128  -8.2127
    -8.1340  -8.0503  -8.0499  -8.0497  -8.0496  -7.8312  -7.8310  -7.8307
    -7.8300  -7.8298  -7.7760  -7.7754  -7.7752  -7.4822  -7.4821  -7.4815
    -7.4809  -7.4805  -7.4161  -7.4158  -7.4154  -7.4147  -7.4141  -7.0263
    -7.0262  -7.0262  -6.9543  -6.9540  -6.9538  -6.9535  -6.7857  -6.7856
    -6.7854  -6.7854  -6.7853  -6.7512  -6.7509  -6.7506  -6.7505  -6.6622
    -6.6621  -6.6621  -6.6324  -6.6321  -6.6321  -6.6318  -6.6317  -6.4970
    -6.4969  -6.4968  -5.7816  -5.7813  -5.7811  -3.6012  -3.6009  -3.6005
    -3.6000  -3.5997  -2.8861  -1.5499  -1.5491  -1.5489  -1.1809  -1.1804
    -1.1798  -1.1792  -1.1703  -1.1700  -1.1699  -0.2718

     occupation numbers 
     1.0000   1.0000   1.0000   1.0000   1.0000   1.0000   1.0000   1.0000
     1.0000   1.0000   1.0000   1.0000   1.0000   1.0000   1.0000   1.0000
     1.0000   1.0000   1.0000   1.0000   1.0000   1.0000   1.0000   1.0000
     1.0000   1.0000   1.0000   1.0000   1.0000   1.0000   1.0000   1.0000
     1.0000   1.0000   1.0000   1.0000   1.0000   1.0000   1.0000   1.0000
     1.0000   1.0000   1.0000   1.0000   1.0000   1.0000   1.0000   1.0000
     1.0000   1.0000   1.0000   1.0000   1.0000   1.0000   1.0000   1.0000
     1.0000   1.0000   1.0000   1.0000   1.0000   1.0000   1.0000   1.0000
     1.0000   1.0000   1.0000   1.0000   1.0000   1.0000   1.0000   1.0000
     1.0000   1.0000   0.0000   0.0000   0.0000   0.0000   0.0000   0.0000
     0.0000   0.0000   0.0000   0.0000   0.0000   0.0000

 ------ SPIN DOWN ----------


          k = 0.0000 0.0000 0.0000 ( 65578 PWs)   bands (ev):

    -9.6941  -9.2827  -9.2826  -9.2823  -9.2820  -9.2818  -8.3084  -8.3081
    -8.3079  -8.1659  -8.1656  -8.1653  -8.1649  -8.0803  -8.0801  -8.0800
    -7.9397  -7.9393  -7.9391  -7.9390  -7.8841  -7.7216  -7.7215  -7.7211
    -7.7206  -7.7202  -7.6329  -7.6324  -7.6321  -7.3884  -7.3883  -7.3877
    -7.3871  -7.3867  -7.3277  -7.3274  -7.3270  -7.3263  -7.3257  -6.9504
    -6.9504  -6.9503  -6.8582  -6.8579  -6.8577  -6.8575  -6.6971  -6.6970
    -6.6968  -6.6968  -6.6968  -6.6602  -6.6599  -6.6597  -6.6596  -6.5793
    -6.5792  -6.5791  -6.5364  -6.5361  -6.5361  -6.5358  -6.5357  -6.4298
    -6.4297  -6.4296  -5.5098  -5.5094  -5.5093  -3.1878  -3.1872  -3.1869
    -3.1862  -3.1858  -2.5698  -1.1568  -1.1558  -1.1553  -0.8928  -0.8924
    -0.8919  -0.7449  -0.7442  -0.7433  -0.7425  -0.2363

     occupation numbers 
     1.0000   1.0000   1.0000   1.0000   1.0000   1.0000   1.0000   1.0000
     1.0000   1.0000   1.0000   1.0000   1.0000   1.0000   1.0000   1.0000
     1.0000   1.0000   1.0000   1.0000   1.0000   1.0000   1.0000   1.0000
     1.0000   1.0000   1.0000   1.0000   1.0000   1.0000   1.0000   1.0000
     1.0000   1.0000   1.0000   1.0000   1.0000   1.0000   1.0000   1.0000
     1.0000   1.0000   1.0000   1.0000   1.0000   1.0000   1.0000   1.0000
     1.0000   1.0000   1.0000   1.0000   1.0000   1.0000   1.0000   1.0000
     1.0000   1.0000   1.0000   1.0000   1.0000   1.0000   1.0000   1.0000
     1.0000   1.0000   1.0000   1.0000   1.0000   0.0000   0.0000   0.0000
     0.0000   0.0000   0.0000   0.0000   0.0000   0.0000   0.0000   0.0000
     0.0000   0.0000   0.0000   0.0000   0.0000   0.0000

     the Fermi energy is    -3.3939 ev

!    total energy              =   -4618.00973499 Ry
     Harris-Foulkes estimate   =   -4618.00973519 Ry
     estimated scf accuracy    <          6.0E-09 Ry

     total all-electron energy =   -138218.568456 Ry

     The total energy is the sum of the following terms:

     one-electron contribution =   -4096.55030666 Ry
     hartree contribution      =    2145.62533572 Ry
     xc contribution           =    -462.97084590 Ry
     ewald contribution        =    1208.30764533 Ry
     one-center paw contrib.   =   -3412.42156348 Ry
      -> PAW hartree energy AE =      66.79678278 Ry
      -> PAW hartree energy PS =     -66.64872047 Ry
      -> PAW xc energy AE      =    -297.85476559 Ry
      -> PAW xc energy PS      =      35.21387041 Ry
      -> total E_H with PAW    =    2145.77339802 Ry
      -> total E_XC with PAW   =    -725.61174108 Ry
     smearing contrib. (-TS)   =      -0.00000000 Ry

     total magnetization       =     5.00 Bohr mag/cell
     absolute magnetization    =     5.20 Bohr mag/cell

     convergence has been achieved in  25 iterations

     Writing output data file ./tmp/ag13.save/
 
     init_run     :     10.06s CPU     10.46s WALL (       1 calls)
     electrons    :    438.70s CPU    449.13s WALL (       1 calls)

     Called by init_run:
     wfcinit      :      4.95s CPU      5.05s WALL (       1 calls)
     wfcinit:atom :      0.03s CPU      0.04s WALL (       2 calls)
     wfcinit:wfcr :      4.83s CPU      4.88s WALL (       2 calls)
     potinit      :      2.50s CPU      2.63s WALL (       1 calls)
     hinit0       :      0.66s CPU      0.68s WALL (       1 calls)

     Called by electrons:
     c_bands      :    229.99s CPU    233.71s WALL (      25 calls)
     sum_band     :     91.72s CPU     94.78s WALL (      25 calls)
     v_of_rho     :     23.94s CPU     24.20s WALL (      26 calls)
     v_h          :      1.55s CPU      1.56s WALL (      26 calls)
     v_xc         :     22.39s CPU     22.64s WALL (      26 calls)
     newd         :     25.92s CPU     28.47s WALL (      26 calls)
     PAW_pot      :     33.70s CPU     33.93s WALL (      26 calls)
     mix_rho      :     30.94s CPU     31.51s WALL (      25 calls)

     Called by c_bands:
     init_us_2    :      1.86s CPU      1.89s WALL (     102 calls)
     regterg      :    220.69s CPU    224.34s WALL (      50 calls)

     Called by sum_band:
     sum_band:bec :      0.03s CPU      0.03s WALL (      50 calls)
     addusdens    :     46.25s CPU     49.07s WALL (      25 calls)

     Called by *egterg:
     h_psi        :    168.69s CPU    169.66s WALL (     278 calls)
     s_psi        :     14.12s CPU     14.15s WALL (     278 calls)
     g_psi        :      0.46s CPU      0.47s WALL (     226 calls)
     rdiaghg      :      6.84s CPU      7.29s WALL (     276 calls)
     regterg:over :     11.89s CPU     11.92s WALL (     226 calls)
     regterg:upda :     11.43s CPU     11.49s WALL (     226 calls)
     regterg:last :      3.97s CPU      3.98s WALL (      50 calls)
     rdiaghg:chol :      0.25s CPU      0.25s WALL (     276 calls)
     rdiaghg:inve :      0.18s CPU      0.19s WALL (     276 calls)
     rdiaghg:para :      0.56s CPU      0.57s WALL (     552 calls)

     Called by h_psi:
     h_psi:calbec :     10.63s CPU     10.66s WALL (     278 calls)
     vloc_psi     :    142.97s CPU    143.87s WALL (     278 calls)
     add_vuspsi   :     14.08s CPU     14.11s WALL (     278 calls)

     General routines
     calbec       :     14.27s CPU     14.31s WALL (     328 calls)
     fft          :     22.95s CPU     23.09s WALL (     539 calls)
     ffts         :     19.89s CPU     20.00s WALL (     654 calls)
     fftw         :    140.60s CPU    141.44s WALL (   11930 calls)
     interpolate  :      4.81s CPU      4.86s WALL (      52 calls)
 
     Parallel routines
     fft_scatt_xy :     38.47s CPU     38.70s WALL (   13123 calls)
     fft_scatt_yz :     46.37s CPU     46.62s WALL (   13123 calls)

     PAW routines
     PAW_pot      :     33.70s CPU     33.93s WALL (      26 calls)
 
     PWSCF        :   7m30.85s CPU   7m42.35s WALL

 
   This run was terminated on:  12:21:49   4Jun2020            

=------------------------------------------------------------------------------=
   JOB DONE.
=------------------------------------------------------------------------------=
