
     Program PWSCF v.6.5 starts on  4Jun2020 at 11:40:49 

     This program is part of the open-source Quantum ESPRESSO suite
     for quantum simulation of materials; please cite
         "P. Giannozzi et al., J. Phys.:Condens. Matter 21 395502 (2009);
         "P. Giannozzi et al., J. Phys.:Condens. Matter 29 465901 (2017);
          URL http://www.quantum-espresso.org", 
     in publications or presentations arising from this work. More details at
     http://www.quantum-espresso.org/quote

     Parallel version (MPI & OpenMP), running on      24 processor cores
     Number of MPI processes:                24
     Threads/MPI process:                     1

     MPI processes distributed on     1 nodes
     R & G space division:  proc/nbgrp/npool/nimage =      24
     Waiting for input...
     Reading input from standard input

     Current dimensions of program PWSCF are:
     Max number of different atomic species (ntypx) = 10
     Max number of k-points (npk) =  40000
     Max angular momentum in pseudopotentials (lmaxx) =  3
               file Ag.pbe-dn-kjpaw_psl.0.1.UPF: wavefunction(s)  5S 5P 4D renormalized

     gamma-point specific algorithms are used

     Subspace diagonalization in iterative solution of the eigenvalue problem:
     one sub-group per band group will be used
     scalapack distributed-memory algorithm (size of sub-group:  4*  4 procs)

 
     Parallelization info
     --------------------
     sticks:   dense  smooth     PW     G-vecs:    dense   smooth      PW
     Min        1105     859    214               135866    92828   11614
     Max        1108     862    216               135880    92832   11628
     Sum       26561   20641   5169              3260879  2227899  278897
 


     bravais-lattice index     =            1
     lattice parameter (alat)  =      45.0000  a.u.
     unit-cell volume          =   91125.0000 (a.u.)^3
     number of atoms/cell      =           13
     number of atomic types    =            1
     number of electrons       =       143.00
     number of Kohn-Sham states=           86
     kinetic-energy cutoff     =      32.0000  Ry
     charge density cutoff     =     165.0000  Ry
     convergence threshold     =      1.0E-08
     mixing beta               =       0.7000
     number of iterations used =            8  local-TF  mixing
     Exchange-correlation= SLA PW PBX PBC
                           (   1   4   3   4   0   0   0)

     celldm(1)=  45.000000  celldm(2)=   0.000000  celldm(3)=   0.000000
     celldm(4)=   0.000000  celldm(5)=   0.000000  celldm(6)=   0.000000

     crystal axes: (cart. coord. in units of alat)
               a(1) = (   1.000000   0.000000   0.000000 )  
               a(2) = (   0.000000   1.000000   0.000000 )  
               a(3) = (   0.000000   0.000000   1.000000 )  

     reciprocal axes: (cart. coord. in units 2 pi/alat)
               b(1) = (  1.000000  0.000000  0.000000 )  
               b(2) = (  0.000000  1.000000  0.000000 )  
               b(3) = (  0.000000  0.000000  1.000000 )  


     PseudoPot. # 1 for Ag read from file:
     ../../pseudo/Ag.pbe-dn-kjpaw_psl.0.1.UPF
     MD5 check sum: 2edc915f30f03476250949c796a6a376
     Pseudo is Projector augmented-wave + core cor, Zval = 11.0
     Generated using "atomic" code by A. Dal Corso v.5.0.2 svn rev. 9415
     Shape of augmentation charge: PSQ
     Using radial grid of 1237 points,  6 beta functions with: 
                l(1) =   0
                l(2) =   0
                l(3) =   1
                l(4) =   1
                l(5) =   2
                l(6) =   2
     Q(r) pseudized with 0 coefficients 


     atomic species   valence    mass     pseudopotential
        Ag            11.00   107.87000     Ag( 1.00)

     Starting magnetic structure 
     atomic species   magnetization
        Ag           0.700

     No symmetry found


                                    s                        frac. trans.

      isym =  1     identity                                     

 cryst.   s( 1) = (     1          0          0      )
                  (     0          1          0      )
                  (     0          0          1      )

 cart.    s( 1) = (  1.0000000  0.0000000  0.0000000 )
                  (  0.0000000  1.0000000  0.0000000 )
                  (  0.0000000  0.0000000  1.0000000 )


     point group C_1 (1)    
     there are  1 classes
     the character table:

       E    
A      1.00

     the symmetry operations in each class and the name of the first element:

     E        1
          identity                                               

   Cartesian axes

     site n.     atom                  positions (alat units)
         1           Ag  tau(   1) = (   0.0994489   0.0972594   0.1891731  )
         2           Ag  tau(   2) = (   0.1195231   0.2079938   0.2384524  )
         3           Ag  tau(   3) = (   0.2886006   0.1469920   0.1535465  )
         4           Ag  tau(   4) = (   0.2073553   0.1221729   0.2423303  )
         5           Ag  tau(   5) = (   0.2308646   0.1373194   0.0455077  )
         6           Ag  tau(   6) = (   0.2509372   0.2480789   0.0947641  )
         7           Ag  tau(   7) = (   0.1140016   0.1065908   0.0675201  )
         8           Ag  tau(   8) = (   0.1751949   0.1726676   0.1419637  )
         9           Ag  tau(   9) = (   0.1463938   0.2857942   0.1472190  )
        10           Ag  tau(  10) = (   0.2363827   0.2387555   0.2163800  )
        11           Ag  tau(  11) = (   0.0617964   0.1983158   0.1303866  )
        12           Ag  tau(  12) = (   0.1430226   0.2231696   0.0416018  )
        13           Ag  tau(  13) = (   0.2039397   0.0595339   0.1367157  )

   Crystallographic axes

     site n.     atom                  positions (cryst. coord.)
         1           Ag  tau(   1) = (  0.0994489  0.0972594  0.1891731  )
         2           Ag  tau(   2) = (  0.1195231  0.2079938  0.2384524  )
         3           Ag  tau(   3) = (  0.2886006  0.1469920  0.1535465  )
         4           Ag  tau(   4) = (  0.2073553  0.1221729  0.2423303  )
         5           Ag  tau(   5) = (  0.2308646  0.1373194  0.0455077  )
         6           Ag  tau(   6) = (  0.2509372  0.2480789  0.0947641  )
         7           Ag  tau(   7) = (  0.1140016  0.1065908  0.0675201  )
         8           Ag  tau(   8) = (  0.1751949  0.1726676  0.1419637  )
         9           Ag  tau(   9) = (  0.1463938  0.2857942  0.1472190  )
        10           Ag  tau(  10) = (  0.2363827  0.2387555  0.2163800  )
        11           Ag  tau(  11) = (  0.0617964  0.1983158  0.1303866  )
        12           Ag  tau(  12) = (  0.1430226  0.2231696  0.0416018  )
        13           Ag  tau(  13) = (  0.2039397  0.0595339  0.1367157  )

     number of k points=     1  Fermi-Dirac smearing, width (Ry)=  0.0007
                       cart. coord. in units 2pi/alat
        k(    1) = (   0.0000000   0.0000000   0.0000000), wk =   1.0000000

                       cryst. coord.
        k(    1) = (   0.0000000   0.0000000   0.0000000), wk =   1.0000000

     Dense  grid:  1630440 G-vectors     FFT dimensions: ( 192, 192, 192)

     Smooth grid:  1113950 G-vectors     FFT dimensions: ( 180, 180, 180)

     Dynamical RAM for                 wfc:       7.62 MB

     Dynamical RAM for     wfc (w. buffer):      22.85 MB

     Dynamical RAM for           str. fact:       1.04 MB

     Dynamical RAM for           local pot:       0.00 MB

     Dynamical RAM for          nlocal pot:      20.72 MB

     Dynamical RAM for                qrad:       7.37 MB

     Dynamical RAM for          rho,v,vnew:      19.72 MB

     Dynamical RAM for               rhoin:       6.57 MB

     Dynamical RAM for            rho*nmix:      33.17 MB

     Dynamical RAM for           G-vectors:       4.24 MB

     Dynamical RAM for          h,s,v(r/c):       0.17 MB

     Dynamical RAM for          <psi|beta>:       0.15 MB

     Dynamical RAM for                 psi:      30.46 MB

     Dynamical RAM for                hpsi:      30.46 MB

     Dynamical RAM for                spsi:      30.46 MB

     Dynamical RAM for      wfcinit/wfcrot:      21.03 MB

     Dynamical RAM for           addusdens:     207.33 MB

     Estimated static dynamical RAM per process >     131.25 MB

     Estimated max dynamical RAM per process >     338.58 MB

     Estimated total dynamical RAM >       7.94 GB
     Generating pointlists ...
     new r_m :   0.0482 (alat units)  2.1687 (a.u.) for type    1

     Check: negative core charge=   -0.000004

     Initial potential from superposition of free atoms

     starting charge  142.99482, renormalised to  143.00000
     Starting wfcs are  117 randomized atomic wfcs
     Checking if some PAW data can be deallocated... 

     total cpu time spent up to now is       25.9 secs

     Self-consistent Calculation

     iteration #  1     ecut=    32.00 Ry     beta= 0.70
     Davidson diagonalization with overlap
     ethr =  1.00E-02,  avg # of iterations =  3.0

     total cpu time spent up to now is       70.3 secs

     total energy              =   -4617.19242750 Ry
     Harris-Foulkes estimate   =   -4610.27173813 Ry
     estimated scf accuracy    <       7.32817860 Ry

     total magnetization       =     5.00 Bohr mag/cell
     absolute magnetization    =     5.01 Bohr mag/cell

     iteration #  2     ecut=    32.00 Ry     beta= 0.70
     Davidson diagonalization with overlap
     ethr =  5.12E-03,  avg # of iterations =  1.0

     total cpu time spent up to now is      112.1 secs

     total energy              =   -4617.93330214 Ry
     Harris-Foulkes estimate   =   -4617.29852299 Ry
     estimated scf accuracy    <       0.95252248 Ry

     total magnetization       =     5.00 Bohr mag/cell
     absolute magnetization    =     5.02 Bohr mag/cell

     iteration #  3     ecut=    32.00 Ry     beta= 0.70
     Davidson diagonalization with overlap
     ethr =  6.66E-04,  avg # of iterations =  3.0

     total cpu time spent up to now is      156.0 secs

     total energy              =   -4617.99886222 Ry
     Harris-Foulkes estimate   =   -4618.00752904 Ry
     estimated scf accuracy    <       0.06964962 Ry

     total magnetization       =     5.00 Bohr mag/cell
     absolute magnetization    =     5.04 Bohr mag/cell

     iteration #  4     ecut=    32.00 Ry     beta= 0.70
     Davidson diagonalization with overlap
     ethr =  4.87E-05,  avg # of iterations =  8.5

     total cpu time spent up to now is      214.6 secs

     total energy              =   -4618.01433989 Ry
     Harris-Foulkes estimate   =   -4618.01787337 Ry
     estimated scf accuracy    <       0.03029072 Ry

     total magnetization       =     5.00 Bohr mag/cell
     absolute magnetization    =     5.11 Bohr mag/cell

     iteration #  5     ecut=    32.00 Ry     beta= 0.70
     Davidson diagonalization with overlap
     ethr =  2.12E-05,  avg # of iterations =  3.0

     total cpu time spent up to now is      257.6 secs

     total energy              =   -4618.01273273 Ry
     Harris-Foulkes estimate   =   -4618.01577755 Ry
     estimated scf accuracy    <       0.01751346 Ry

     total magnetization       =     5.00 Bohr mag/cell
     absolute magnetization    =     5.17 Bohr mag/cell

     iteration #  6     ecut=    32.00 Ry     beta= 0.70
     Davidson diagonalization with overlap
     c_bands:  1 eigenvalues not converged
     ethr =  1.22E-05,  avg # of iterations = 14.5

     total cpu time spent up to now is      308.8 secs

     total energy              =   -4618.01108770 Ry
     Harris-Foulkes estimate   =   -4618.01380340 Ry
     estimated scf accuracy    <       0.01110928 Ry

     total magnetization       =     5.00 Bohr mag/cell
     absolute magnetization    =     5.24 Bohr mag/cell

     iteration #  7     ecut=    32.00 Ry     beta= 0.70
     Davidson diagonalization with overlap
     c_bands:  1 eigenvalues not converged
     ethr =  7.77E-06,  avg # of iterations = 18.0

     total cpu time spent up to now is      361.2 secs

     total energy              =   -4618.01071234 Ry
     Harris-Foulkes estimate   =   -4618.01220394 Ry
     estimated scf accuracy    <       0.00610809 Ry

     total magnetization       =     5.00 Bohr mag/cell
     absolute magnetization    =     5.19 Bohr mag/cell

     iteration #  8     ecut=    32.00 Ry     beta= 0.70
     Davidson diagonalization with overlap
     c_bands:  1 eigenvalues not converged
     ethr =  4.27E-06,  avg # of iterations = 11.0

     total cpu time spent up to now is      409.8 secs

     total energy              =   -4618.01062662 Ry
     Harris-Foulkes estimate   =   -4618.01097293 Ry
     estimated scf accuracy    <       0.00386488 Ry

     total magnetization       =     5.00 Bohr mag/cell
     absolute magnetization    =     5.20 Bohr mag/cell

     iteration #  9     ecut=    32.00 Ry     beta= 0.70
     Davidson diagonalization with overlap
     ethr =  2.70E-06,  avg # of iterations =  8.5

     total cpu time spent up to now is      460.8 secs

     total energy              =   -4618.01059973 Ry
     Harris-Foulkes estimate   =   -4618.01089496 Ry
     estimated scf accuracy    <       0.00193111 Ry

     total magnetization       =     5.00 Bohr mag/cell
     absolute magnetization    =     5.20 Bohr mag/cell

     iteration # 10     ecut=    32.00 Ry     beta= 0.70
     Davidson diagonalization with overlap
     ethr =  1.35E-06,  avg # of iterations =  2.0

     total cpu time spent up to now is      503.5 secs

     total energy              =   -4618.01022341 Ry
     Harris-Foulkes estimate   =   -4618.01065065 Ry
     estimated scf accuracy    <       0.00131251 Ry

     total magnetization       =     5.00 Bohr mag/cell
     absolute magnetization    =     5.19 Bohr mag/cell

     iteration # 11     ecut=    32.00 Ry     beta= 0.70
     Davidson diagonalization with overlap
     ethr =  9.18E-07,  avg # of iterations =  6.0

     total cpu time spent up to now is      550.4 secs

     total energy              =   -4618.01007095 Ry
     Harris-Foulkes estimate   =   -4618.01028227 Ry
     estimated scf accuracy    <       0.00081716 Ry

     total magnetization       =     5.00 Bohr mag/cell
     absolute magnetization    =     5.21 Bohr mag/cell

     iteration # 12     ecut=    32.00 Ry     beta= 0.70
     Davidson diagonalization with overlap
     ethr =  5.71E-07,  avg # of iterations =  1.0

     total cpu time spent up to now is      592.7 secs

     total energy              =   -4618.00998968 Ry
     Harris-Foulkes estimate   =   -4618.01008562 Ry
     estimated scf accuracy    <       0.00047673 Ry

     total magnetization       =     5.00 Bohr mag/cell
     absolute magnetization    =     5.21 Bohr mag/cell

     iteration # 13     ecut=    32.00 Ry     beta= 0.70
     Davidson diagonalization with overlap
     ethr =  3.33E-07,  avg # of iterations =  2.5

     total cpu time spent up to now is      636.4 secs

     total energy              =   -4618.00999329 Ry
     Harris-Foulkes estimate   =   -4618.01001869 Ry
     estimated scf accuracy    <       0.00028528 Ry

     total magnetization       =     5.00 Bohr mag/cell
     absolute magnetization    =     5.21 Bohr mag/cell

     iteration # 14     ecut=    32.00 Ry     beta= 0.70
     Davidson diagonalization with overlap
     ethr =  1.99E-07,  avg # of iterations =  1.0

     total cpu time spent up to now is      678.3 secs

     total energy              =   -4618.00998209 Ry
     Harris-Foulkes estimate   =   -4618.01000032 Ry
     estimated scf accuracy    <       0.00019455 Ry

     total magnetization       =     5.00 Bohr mag/cell
     absolute magnetization    =     5.21 Bohr mag/cell

     iteration # 15     ecut=    32.00 Ry     beta= 0.70
     Davidson diagonalization with overlap
     ethr =  1.36E-07,  avg # of iterations =  1.0

     total cpu time spent up to now is      720.2 secs

     total energy              =   -4618.00996726 Ry
     Harris-Foulkes estimate   =   -4618.00998819 Ry
     estimated scf accuracy    <       0.00010673 Ry

     total magnetization       =     5.00 Bohr mag/cell
     absolute magnetization    =     5.20 Bohr mag/cell

     iteration # 16     ecut=    32.00 Ry     beta= 0.70
     Davidson diagonalization with overlap
     ethr =  7.46E-08,  avg # of iterations =  1.0

     total cpu time spent up to now is      762.0 secs

     total energy              =   -4618.00996793 Ry
     Harris-Foulkes estimate   =   -4618.00997355 Ry
     estimated scf accuracy    <       0.00005919 Ry

     total magnetization       =     5.00 Bohr mag/cell
     absolute magnetization    =     5.20 Bohr mag/cell

     iteration # 17     ecut=    32.00 Ry     beta= 0.70
     Davidson diagonalization with overlap
     ethr =  4.14E-08,  avg # of iterations =  4.0

     total cpu time spent up to now is      805.2 secs

     total energy              =   -4618.00997938 Ry
     Harris-Foulkes estimate   =   -4618.00997074 Ry
     estimated scf accuracy    <       0.00003160 Ry

     total magnetization       =     5.00 Bohr mag/cell
     absolute magnetization    =     5.20 Bohr mag/cell

     iteration # 18     ecut=    32.00 Ry     beta= 0.70
     Davidson diagonalization with overlap
     ethr =  2.21E-08,  avg # of iterations =  1.5

     total cpu time spent up to now is      847.7 secs

     total energy              =   -4618.00997814 Ry
     Harris-Foulkes estimate   =   -4618.00998071 Ry
     estimated scf accuracy    <       0.00001446 Ry

     total magnetization       =     5.00 Bohr mag/cell
     absolute magnetization    =     5.20 Bohr mag/cell

     iteration # 19     ecut=    32.00 Ry     beta= 0.70
     Davidson diagonalization with overlap
     ethr =  1.01E-08,  avg # of iterations =  2.5

     total cpu time spent up to now is      891.6 secs

     total energy              =   -4618.00998493 Ry
     Harris-Foulkes estimate   =   -4618.00997951 Ry
     estimated scf accuracy    <       0.00000800 Ry

     total magnetization       =     5.00 Bohr mag/cell
     absolute magnetization    =     5.20 Bohr mag/cell

     iteration # 20     ecut=    32.00 Ry     beta= 0.70
     Davidson diagonalization with overlap
     ethr =  5.59E-09,  avg # of iterations =  1.0

     total cpu time spent up to now is      933.2 secs

     total energy              =   -4618.00999250 Ry
     Harris-Foulkes estimate   =   -4618.00998531 Ry
     estimated scf accuracy    <       0.00000434 Ry

     total magnetization       =     5.00 Bohr mag/cell
     absolute magnetization    =     5.20 Bohr mag/cell

     iteration # 21     ecut=    32.00 Ry     beta= 0.70
     Davidson diagonalization with overlap
     ethr =  3.03E-09,  avg # of iterations =  3.5

     total cpu time spent up to now is      977.5 secs

     total energy              =   -4618.00998922 Ry
     Harris-Foulkes estimate   =   -4618.00999290 Ry
     estimated scf accuracy    <       0.00000223 Ry

     total magnetization       =     5.00 Bohr mag/cell
     absolute magnetization    =     5.20 Bohr mag/cell

     iteration # 22     ecut=    32.00 Ry     beta= 0.70
     Davidson diagonalization with overlap
     ethr =  1.56E-09,  avg # of iterations =  3.0

     total cpu time spent up to now is     1026.7 secs

     total energy              =   -4618.00999142 Ry
     Harris-Foulkes estimate   =   -4618.00998974 Ry
     estimated scf accuracy    <       0.00000114 Ry

     total magnetization       =     5.00 Bohr mag/cell
     absolute magnetization    =     5.20 Bohr mag/cell

     iteration # 23     ecut=    32.00 Ry     beta= 0.70
     Davidson diagonalization with overlap
     ethr =  7.99E-10,  avg # of iterations =  2.0

     total cpu time spent up to now is     1070.7 secs

     total energy              =   -4618.00999043 Ry
     Harris-Foulkes estimate   =   -4618.00999156 Ry
     estimated scf accuracy    <       0.00000044 Ry

     total magnetization       =     5.00 Bohr mag/cell
     absolute magnetization    =     5.20 Bohr mag/cell

     iteration # 24     ecut=    32.00 Ry     beta= 0.70
     Davidson diagonalization with overlap
     ethr =  3.08E-10,  avg # of iterations =  1.5

     total cpu time spent up to now is     1112.4 secs

     total energy              =   -4618.00999080 Ry
     Harris-Foulkes estimate   =   -4618.00999045 Ry
     estimated scf accuracy    <       0.00000019 Ry

     total magnetization       =     5.00 Bohr mag/cell
     absolute magnetization    =     5.20 Bohr mag/cell

     iteration # 25     ecut=    32.00 Ry     beta= 0.70
     Davidson diagonalization with overlap
     ethr =  1.34E-10,  avg # of iterations =  2.0

     total cpu time spent up to now is     1155.1 secs

     total energy              =   -4618.00999156 Ry
     Harris-Foulkes estimate   =   -4618.00999081 Ry
     estimated scf accuracy    <       0.00000008 Ry

     total magnetization       =     5.00 Bohr mag/cell
     absolute magnetization    =     5.20 Bohr mag/cell

     iteration # 26     ecut=    32.00 Ry     beta= 0.70
     Davidson diagonalization with overlap
     ethr =  5.80E-11,  avg # of iterations =  3.5

     total cpu time spent up to now is     1199.8 secs

     total energy              =   -4618.00999245 Ry
     Harris-Foulkes estimate   =   -4618.00999157 Ry
     estimated scf accuracy    <       0.00000004 Ry

     total magnetization       =     5.00 Bohr mag/cell
     absolute magnetization    =     5.20 Bohr mag/cell

     iteration # 27     ecut=    32.00 Ry     beta= 0.70
     Davidson diagonalization with overlap
     ethr =  2.56E-11,  avg # of iterations =  3.5
 
     Magnetic moment per site:
     atom:    1    charge:    9.4156    magn:    0.1128    constr:    0.0000
     atom:    2    charge:    9.4164    magn:    0.1129    constr:    0.0000
     atom:    3    charge:    9.4155    magn:    0.1128    constr:    0.0000
     atom:    4    charge:    9.4153    magn:    0.1129    constr:    0.0000
     atom:    5    charge:    9.4156    magn:    0.1128    constr:    0.0000
     atom:    6    charge:    9.4157    magn:    0.1128    constr:    0.0000
     atom:    7    charge:    9.4157    magn:    0.1128    constr:    0.0000
     atom:    8    charge:    9.5331    magn:    0.1424    constr:    0.0000
     atom:    9    charge:    9.4160    magn:    0.1129    constr:    0.0000
     atom:   10    charge:    9.4154    magn:    0.1128    constr:    0.0000
     atom:   11    charge:    9.4163    magn:    0.1128    constr:    0.0000
     atom:   12    charge:    9.4154    magn:    0.1129    constr:    0.0000
     atom:   13    charge:    9.4156    magn:    0.1128    constr:    0.0000

     total cpu time spent up to now is     1241.5 secs

     End of self-consistent calculation

 ------ SPIN UP ------------


          k = 0.0000 0.0000 0.0000 (139449 PWs)   bands (ev):

   -10.0789  -9.6920  -9.6918  -9.6916  -9.6913  -9.6911  -8.7202  -8.7199
    -8.7198  -8.5763  -8.5760  -8.5757  -8.5753  -8.5354  -8.5352  -8.5351
    -8.4564  -8.3726  -8.3722  -8.3720  -8.3719  -8.1535  -8.1533  -8.1530
    -8.1524  -8.1521  -8.0983  -8.0978  -8.0975  -7.8045  -7.8044  -7.8038
    -7.8032  -7.8028  -7.7384  -7.7381  -7.7377  -7.7370  -7.7364  -7.3486
    -7.3486  -7.3485  -7.2766  -7.2764  -7.2761  -7.2759  -7.1080  -7.1079
    -7.1078  -7.1077  -7.1077  -7.0735  -7.0732  -7.0730  -7.0728  -6.9845
    -6.9845  -6.9844  -6.9548  -6.9545  -6.9544  -6.9542  -6.9540  -6.8193
    -6.8192  -6.8190  -6.1040  -6.1037  -6.1035  -3.9235  -3.9232  -3.9229
    -3.9224  -3.9220  -3.2075  -1.8714  -1.8709  -1.8708  -1.5024  -1.5018
    -1.5014  -1.5007  -1.4934  -1.4930  -1.4928  -0.5100

     occupation numbers 
     1.0000   1.0000   1.0000   1.0000   1.0000   1.0000   1.0000   1.0000
     1.0000   1.0000   1.0000   1.0000   1.0000   1.0000   1.0000   1.0000
     1.0000   1.0000   1.0000   1.0000   1.0000   1.0000   1.0000   1.0000
     1.0000   1.0000   1.0000   1.0000   1.0000   1.0000   1.0000   1.0000
     1.0000   1.0000   1.0000   1.0000   1.0000   1.0000   1.0000   1.0000
     1.0000   1.0000   1.0000   1.0000   1.0000   1.0000   1.0000   1.0000
     1.0000   1.0000   1.0000   1.0000   1.0000   1.0000   1.0000   1.0000
     1.0000   1.0000   1.0000   1.0000   1.0000   1.0000   1.0000   1.0000
     1.0000   1.0000   1.0000   1.0000   1.0000   1.0000   1.0000   1.0000
     1.0000   1.0000   0.0000   0.0000   0.0000   0.0000   0.0000   0.0000
     0.0000   0.0000   0.0000   0.0000   0.0000   0.0000

 ------ SPIN DOWN ----------


          k = 0.0000 0.0000 0.0000 (139449 PWs)   bands (ev):

   -10.0164  -9.6051  -9.6049  -9.6047  -9.6044  -9.6042  -8.6307  -8.6304
    -8.6302  -8.4882  -8.4879  -8.4876  -8.4872  -8.4026  -8.4024  -8.4023
    -8.2620  -8.2616  -8.2614  -8.2613  -8.2064  -8.0440  -8.0438  -8.0435
    -8.0429  -8.0425  -7.9553  -7.9547  -7.9544  -7.7107  -7.7107  -7.7100
    -7.7094  -7.7090  -7.6500  -7.6497  -7.6493  -7.6486  -7.6480  -7.2727
    -7.2727  -7.2726  -7.1805  -7.1803  -7.1800  -7.1798  -7.0194  -7.0193
    -7.0192  -7.0191  -7.0191  -6.9825  -6.9823  -6.9820  -6.9819  -6.9016
    -6.9015  -6.9015  -6.8588  -6.8585  -6.8584  -6.8582  -6.8581  -6.7521
    -6.7520  -6.7519  -5.8322  -5.8318  -5.8316  -3.5097  -3.5093  -3.5090
    -3.5084  -3.5079  -2.8909  -1.4778  -1.4772  -1.4770  -1.2163  -1.2162
    -1.2157  -1.0657  -1.0653  -1.0648  -1.0639  -0.4894

     occupation numbers 
     1.0000   1.0000   1.0000   1.0000   1.0000   1.0000   1.0000   1.0000
     1.0000   1.0000   1.0000   1.0000   1.0000   1.0000   1.0000   1.0000
     1.0000   1.0000   1.0000   1.0000   1.0000   1.0000   1.0000   1.0000
     1.0000   1.0000   1.0000   1.0000   1.0000   1.0000   1.0000   1.0000
     1.0000   1.0000   1.0000   1.0000   1.0000   1.0000   1.0000   1.0000
     1.0000   1.0000   1.0000   1.0000   1.0000   1.0000   1.0000   1.0000
     1.0000   1.0000   1.0000   1.0000   1.0000   1.0000   1.0000   1.0000
     1.0000   1.0000   1.0000   1.0000   1.0000   1.0000   1.0000   1.0000
     1.0000   1.0000   1.0000   1.0000   1.0000   0.0000   0.0000   0.0000
     0.0000   0.0000   0.0000   0.0000   0.0000   0.0000   0.0000   0.0000
     0.0000   0.0000   0.0000   0.0000   0.0000   0.0000

     the Fermi energy is    -3.7158 ev

!    total energy              =   -4618.00999204 Ry
     Harris-Foulkes estimate   =   -4618.00999245 Ry
     estimated scf accuracy    <          8.1E-09 Ry

     total all-electron energy =   -138218.568713 Ry

     The total energy is the sum of the following terms:

     one-electron contribution =   -4775.92330688 Ry
     hartree contribution      =    2483.62003407 Ry
     xc contribution           =    -462.97153260 Ry
     ewald contribution        =    1549.68639033 Ry
     one-center paw contrib.   =   -3412.42157695 Ry
      -> PAW hartree energy AE =      66.79712649 Ry
      -> PAW hartree energy PS =     -66.64906462 Ry
      -> PAW xc energy AE      =    -297.85479026 Ry
      -> PAW xc energy PS      =      35.21389629 Ry
      -> total E_H with PAW    =    2483.76809594 Ry
      -> total E_XC with PAW   =    -725.61242657 Ry
     smearing contrib. (-TS)   =      -0.00000000 Ry

     total magnetization       =     5.00 Bohr mag/cell
     absolute magnetization    =     5.20 Bohr mag/cell

     convergence has been achieved in  27 iterations

     Writing output data file ./tmp/ag13.save/
 
     init_run     :     23.06s CPU     23.91s WALL (       1 calls)
     electrons    :   1189.22s CPU   1215.87s WALL (       1 calls)

     Called by init_run:
     wfcinit      :     12.97s CPU     13.19s WALL (       1 calls)
     wfcinit:atom :      0.08s CPU      0.11s WALL (       2 calls)
     wfcinit:wfcr :     12.67s CPU     12.82s WALL (       2 calls)
     potinit      :      4.13s CPU      4.37s WALL (       1 calls)
     hinit0       :      1.09s CPU      1.18s WALL (       1 calls)

     Called by electrons:
     c_bands      :    653.11s CPU    662.55s WALL (      27 calls)
     sum_band     :    268.25s CPU    275.79s WALL (      27 calls)
     v_of_rho     :     61.17s CPU     62.75s WALL (      28 calls)
     v_h          :      4.03s CPU      4.04s WALL (      28 calls)
     v_xc         :     57.15s CPU     58.71s WALL (      28 calls)
     newd         :     67.25s CPU     73.55s WALL (      28 calls)
     PAW_pot      :     36.14s CPU     36.42s WALL (      28 calls)
     mix_rho      :     94.80s CPU     96.34s WALL (      27 calls)

     Called by c_bands:
     init_us_2    :      4.18s CPU      4.23s WALL (     110 calls)
     regterg      :    632.04s CPU    641.36s WALL (      54 calls)

     Called by sum_band:
     sum_band:bec :      0.03s CPU      0.04s WALL (      54 calls)
     addusdens    :    125.96s CPU    132.80s WALL (      27 calls)

     Called by *egterg:
     h_psi        :    529.23s CPU    532.74s WALL (     282 calls)
     s_psi        :     29.44s CPU     29.55s WALL (     282 calls)
     g_psi        :      1.06s CPU      1.06s WALL (     226 calls)
     rdiaghg      :      6.91s CPU      7.32s WALL (     280 calls)
     regterg:over :     25.97s CPU     26.10s WALL (     226 calls)
     regterg:upda :     24.78s CPU     25.05s WALL (     226 calls)
     regterg:last :      8.64s CPU      8.67s WALL (      54 calls)
     rdiaghg:chol :      0.24s CPU      0.25s WALL (     280 calls)
     rdiaghg:inve :      0.19s CPU      0.19s WALL (     280 calls)
     rdiaghg:para :      0.57s CPU      0.58s WALL (     560 calls)

     Called by h_psi:
     h_psi:calbec :     22.47s CPU     22.57s WALL (     282 calls)
     vloc_psi     :    471.09s CPU    474.23s WALL (     282 calls)
     add_vuspsi   :     33.40s CPU     33.65s WALL (     282 calls)

     General routines
     calbec       :     30.54s CPU     30.66s WALL (     336 calls)
     fft          :     63.16s CPU     63.58s WALL (     581 calls)
     ffts         :     63.47s CPU     63.77s WALL (     766 calls)
     fftw         :    462.61s CPU    465.54s WALL (   12800 calls)
     interpolate  :     12.36s CPU     12.47s WALL (      56 calls)
 
     Parallel routines
     fft_scatt_xy :     98.10s CPU     98.78s WALL (   14147 calls)
     fft_scatt_yz :    153.75s CPU    154.67s WALL (   14147 calls)

     PAW routines
     PAW_pot      :     36.14s CPU     36.42s WALL (      28 calls)
 
     PWSCF        :  20m14.53s CPU  20m43.28s WALL

 
   This run was terminated on:  12: 1:32   4Jun2020            

=------------------------------------------------------------------------------=
   JOB DONE.
=------------------------------------------------------------------------------=
