
     Program PWSCF v.6.5 starts on  4Jun2020 at 12:30:37 

     This program is part of the open-source Quantum ESPRESSO suite
     for quantum simulation of materials; please cite
         "P. Giannozzi et al., J. Phys.:Condens. Matter 21 395502 (2009);
         "P. Giannozzi et al., J. Phys.:Condens. Matter 29 465901 (2017);
          URL http://www.quantum-espresso.org", 
     in publications or presentations arising from this work. More details at
     http://www.quantum-espresso.org/quote

     Parallel version (MPI & OpenMP), running on      24 processor cores
     Number of MPI processes:                24
     Threads/MPI process:                     1

     MPI processes distributed on     1 nodes
     R & G space division:  proc/nbgrp/npool/nimage =      24
     Waiting for input...
     Reading input from standard input

     Current dimensions of program PWSCF are:
     Max number of different atomic species (ntypx) = 10
     Max number of k-points (npk) =  40000
     Max angular momentum in pseudopotentials (lmaxx) =  3
               file Ag.pbe-dn-kjpaw_psl.0.1.UPF: wavefunction(s)  5S 5P 4D renormalized

     gamma-point specific algorithms are used

     Subspace diagonalization in iterative solution of the eigenvalue problem:
     one sub-group per band group will be used
     scalapack distributed-memory algorithm (size of sub-group:  4*  4 procs)

 
     Parallelization info
     --------------------
     sticks:   dense  smooth     PW     G-vecs:    dense   smooth      PW
     Min         122      94     23                 5026     3434     428
     Max         124      96     26                 5036     3444     436
     Sum        2957    2289    577               120713    82519   10395
 


     bravais-lattice index     =            1
     lattice parameter (alat)  =      15.0000  a.u.
     unit-cell volume          =    3375.0000 (a.u.)^3
     number of atoms/cell      =           13
     number of atomic types    =            1
     number of electrons       =       143.00
     number of Kohn-Sham states=           86
     kinetic-energy cutoff     =      32.0000  Ry
     charge density cutoff     =     165.0000  Ry
     convergence threshold     =      1.0E-08
     mixing beta               =       0.7000
     number of iterations used =            8  local-TF  mixing
     Exchange-correlation= SLA PW PBX PBC
                           (   1   4   3   4   0   0   0)

     celldm(1)=  15.000000  celldm(2)=   0.000000  celldm(3)=   0.000000
     celldm(4)=   0.000000  celldm(5)=   0.000000  celldm(6)=   0.000000

     crystal axes: (cart. coord. in units of alat)
               a(1) = (   1.000000   0.000000   0.000000 )  
               a(2) = (   0.000000   1.000000   0.000000 )  
               a(3) = (   0.000000   0.000000   1.000000 )  

     reciprocal axes: (cart. coord. in units 2 pi/alat)
               b(1) = (  1.000000  0.000000  0.000000 )  
               b(2) = (  0.000000  1.000000  0.000000 )  
               b(3) = (  0.000000  0.000000  1.000000 )  


     PseudoPot. # 1 for Ag read from file:
     ../../pseudo/Ag.pbe-dn-kjpaw_psl.0.1.UPF
     MD5 check sum: 2edc915f30f03476250949c796a6a376
     Pseudo is Projector augmented-wave + core cor, Zval = 11.0
     Generated using "atomic" code by A. Dal Corso v.5.0.2 svn rev. 9415
     Shape of augmentation charge: PSQ
     Using radial grid of 1237 points,  6 beta functions with: 
                l(1) =   0
                l(2) =   0
                l(3) =   1
                l(4) =   1
                l(5) =   2
                l(6) =   2
     Q(r) pseudized with 0 coefficients 


     atomic species   valence    mass     pseudopotential
        Ag            11.00   107.87000     Ag( 1.00)

     Starting magnetic structure 
     atomic species   magnetization
        Ag           0.700

     No symmetry found


                                    s                        frac. trans.

      isym =  1     identity                                     

 cryst.   s( 1) = (     1          0          0      )
                  (     0          1          0      )
                  (     0          0          1      )

 cart.    s( 1) = (  1.0000000  0.0000000  0.0000000 )
                  (  0.0000000  1.0000000  0.0000000 )
                  (  0.0000000  0.0000000  1.0000000 )


     point group C_1 (1)    
     there are  1 classes
     the character table:

       E    
A      1.00

     the symmetry operations in each class and the name of the first element:

     E        1
          identity                                               

   Cartesian axes

     site n.     atom                  positions (alat units)
         1           Ag  tau(   1) = (   0.2983468   0.2917781   0.5675192  )
         2           Ag  tau(   2) = (   0.3585693   0.6239813   0.7153572  )
         3           Ag  tau(   3) = (   0.8658017   0.4409759   0.4606395  )
         4           Ag  tau(   4) = (   0.6220659   0.3665188   0.7269908  )
         5           Ag  tau(   5) = (   0.6925938   0.4119581   0.1365230  )
         6           Ag  tau(   6) = (   0.7528115   0.7442366   0.2842923  )
         7           Ag  tau(   7) = (   0.3420047   0.3197724   0.2025604  )
         8           Ag  tau(   8) = (   0.5255848   0.5180028   0.4258910  )
         9           Ag  tau(   9) = (   0.4391813   0.8573825   0.4416570  )
        10           Ag  tau(  10) = (   0.7091482   0.7162666   0.6491399  )
        11           Ag  tau(  11) = (   0.1853892   0.5949474   0.3911597  )
        12           Ag  tau(  12) = (   0.4290679   0.6695087   0.1248055  )
        13           Ag  tau(  13) = (   0.6118190   0.1786016   0.4101471  )

   Crystallographic axes

     site n.     atom                  positions (cryst. coord.)
         1           Ag  tau(   1) = (  0.2983468  0.2917781  0.5675192  )
         2           Ag  tau(   2) = (  0.3585693  0.6239813  0.7153572  )
         3           Ag  tau(   3) = (  0.8658017  0.4409759  0.4606395  )
         4           Ag  tau(   4) = (  0.6220659  0.3665188  0.7269908  )
         5           Ag  tau(   5) = (  0.6925938  0.4119581  0.1365230  )
         6           Ag  tau(   6) = (  0.7528115  0.7442366  0.2842923  )
         7           Ag  tau(   7) = (  0.3420047  0.3197724  0.2025604  )
         8           Ag  tau(   8) = (  0.5255848  0.5180028  0.4258910  )
         9           Ag  tau(   9) = (  0.4391813  0.8573825  0.4416570  )
        10           Ag  tau(  10) = (  0.7091482  0.7162666  0.6491399  )
        11           Ag  tau(  11) = (  0.1853892  0.5949474  0.3911597  )
        12           Ag  tau(  12) = (  0.4290679  0.6695087  0.1248055  )
        13           Ag  tau(  13) = (  0.6118190  0.1786016  0.4101471  )

     number of k points=     1  Fermi-Dirac smearing, width (Ry)=  0.0007
                       cart. coord. in units 2pi/alat
        k(    1) = (   0.0000000   0.0000000   0.0000000), wk =   1.0000000

                       cryst. coord.
        k(    1) = (   0.0000000   0.0000000   0.0000000), wk =   1.0000000

     Dense  grid:    60357 G-vectors     FFT dimensions: (  64,  64,  64)

     Smooth grid:    41260 G-vectors     FFT dimensions: (  60,  60,  60)

     Dynamical RAM for                 wfc:       0.28 MB

     Dynamical RAM for     wfc (w. buffer):       0.84 MB

     Dynamical RAM for           str. fact:       0.04 MB

     Dynamical RAM for           local pot:       0.00 MB

     Dynamical RAM for          nlocal pot:       0.76 MB

     Dynamical RAM for                qrad:       2.46 MB

     Dynamical RAM for          rho,v,vnew:       0.79 MB

     Dynamical RAM for               rhoin:       0.26 MB

     Dynamical RAM for            rho*nmix:       1.23 MB

     Dynamical RAM for           G-vectors:       0.16 MB

     Dynamical RAM for          h,s,v(r/c):       0.17 MB

     Dynamical RAM for          <psi|beta>:       0.15 MB

     Dynamical RAM for                 psi:       1.12 MB

     Dynamical RAM for                hpsi:       1.12 MB

     Dynamical RAM for                spsi:       1.12 MB

     Dynamical RAM for      wfcinit/wfcrot:       1.08 MB

     Dynamical RAM for           addusdens:       7.68 MB

     Estimated static dynamical RAM per process >       7.19 MB

     Estimated max dynamical RAM per process >      14.86 MB

     Estimated total dynamical RAM >     356.75 MB
     Generating pointlists ...
     new r_m :   0.1446 (alat units)  2.1687 (a.u.) for type    1

     Check: negative core charge=   -0.000018

     Initial potential from superposition of free atoms

     starting charge  142.99482, renormalised to  143.00000
     Starting wfcs are  117 randomized atomic wfcs
     Checking if some PAW data can be deallocated... 

     total cpu time spent up to now is        3.9 secs

     Self-consistent Calculation

     iteration #  1     ecut=    32.00 Ry     beta= 0.70
     Davidson diagonalization with overlap
     ethr =  1.00E-02,  avg # of iterations =  2.5

     total cpu time spent up to now is        6.3 secs

     total energy              =   -4617.01199090 Ry
     Harris-Foulkes estimate   =   -4610.28349044 Ry
     estimated scf accuracy    <       7.00618701 Ry

     total magnetization       =     7.00 Bohr mag/cell
     absolute magnetization    =     7.00 Bohr mag/cell

     iteration #  2     ecut=    32.00 Ry     beta= 0.70
     Davidson diagonalization with overlap
     ethr =  4.90E-03,  avg # of iterations =  1.0

     total cpu time spent up to now is        8.5 secs

     total energy              =   -4618.26914239 Ry
     Harris-Foulkes estimate   =   -4617.43415635 Ry
     estimated scf accuracy    <       1.03607302 Ry

     total magnetization       =     1.00 Bohr mag/cell
     absolute magnetization    =     1.69 Bohr mag/cell

     iteration #  3     ecut=    32.00 Ry     beta= 0.70
     Davidson diagonalization with overlap
     ethr =  7.25E-04,  avg # of iterations =  2.5

     total cpu time spent up to now is       10.8 secs

     total energy              =   -4618.31526320 Ry
     Harris-Foulkes estimate   =   -4618.32858736 Ry
     estimated scf accuracy    <       0.07714234 Ry

     total magnetization       =     0.79 Bohr mag/cell
     absolute magnetization    =     1.08 Bohr mag/cell

     iteration #  4     ecut=    32.00 Ry     beta= 0.70
     Davidson diagonalization with overlap
     ethr =  5.39E-05,  avg # of iterations =  4.5

     total cpu time spent up to now is       13.6 secs

     total energy              =   -4618.32075290 Ry
     Harris-Foulkes estimate   =   -4618.32883475 Ry
     estimated scf accuracy    <       0.02869771 Ry

     total magnetization       =     0.98 Bohr mag/cell
     absolute magnetization    =     1.07 Bohr mag/cell

     iteration #  5     ecut=    32.00 Ry     beta= 0.70
     Davidson diagonalization with overlap
     ethr =  2.01E-05,  avg # of iterations =  2.5

     total cpu time spent up to now is       15.9 secs

     total energy              =   -4618.32189841 Ry
     Harris-Foulkes estimate   =   -4618.32381059 Ry
     estimated scf accuracy    <       0.00921200 Ry

     total magnetization       =     0.99 Bohr mag/cell
     absolute magnetization    =     1.08 Bohr mag/cell

     iteration #  6     ecut=    32.00 Ry     beta= 0.70
     Davidson diagonalization with overlap
     ethr =  6.44E-06,  avg # of iterations =  3.0

     total cpu time spent up to now is       18.3 secs

     total energy              =   -4618.32062126 Ry
     Harris-Foulkes estimate   =   -4618.32243130 Ry
     estimated scf accuracy    <       0.00434845 Ry

     total magnetization       =     0.99 Bohr mag/cell
     absolute magnetization    =     1.08 Bohr mag/cell

     iteration #  7     ecut=    32.00 Ry     beta= 0.70
     Davidson diagonalization with overlap
     ethr =  3.04E-06,  avg # of iterations =  4.0

     total cpu time spent up to now is       20.8 secs

     total energy              =   -4618.32111929 Ry
     Harris-Foulkes estimate   =   -4618.32115833 Ry
     estimated scf accuracy    <       0.00077816 Ry

     total magnetization       =     0.99 Bohr mag/cell
     absolute magnetization    =     1.07 Bohr mag/cell

     iteration #  8     ecut=    32.00 Ry     beta= 0.70
     Davidson diagonalization with overlap
     ethr =  5.44E-07,  avg # of iterations =  2.0

     total cpu time spent up to now is       23.1 secs

     total energy              =   -4618.32136457 Ry
     Harris-Foulkes estimate   =   -4618.32117123 Ry
     estimated scf accuracy    <       0.00026020 Ry

     total magnetization       =     0.99 Bohr mag/cell
     absolute magnetization    =     1.07 Bohr mag/cell

     iteration #  9     ecut=    32.00 Ry     beta= 0.70
     Davidson diagonalization with overlap
     ethr =  1.82E-07,  avg # of iterations =  4.0

     total cpu time spent up to now is       25.6 secs

     total energy              =   -4618.32149363 Ry
     Harris-Foulkes estimate   =   -4618.32140370 Ry
     estimated scf accuracy    <       0.00004585 Ry

     total magnetization       =     1.00 Bohr mag/cell
     absolute magnetization    =     1.08 Bohr mag/cell

     iteration # 10     ecut=    32.00 Ry     beta= 0.70
     Davidson diagonalization with overlap
     ethr =  3.21E-08,  avg # of iterations =  2.5

     total cpu time spent up to now is       28.0 secs

     total energy              =   -4618.32153100 Ry
     Harris-Foulkes estimate   =   -4618.32150097 Ry
     estimated scf accuracy    <       0.00001627 Ry

     total magnetization       =     1.00 Bohr mag/cell
     absolute magnetization    =     1.08 Bohr mag/cell

     iteration # 11     ecut=    32.00 Ry     beta= 0.70
     Davidson diagonalization with overlap
     ethr =  1.14E-08,  avg # of iterations =  2.5

     total cpu time spent up to now is       30.4 secs

     total energy              =   -4618.32153976 Ry
     Harris-Foulkes estimate   =   -4618.32153287 Ry
     estimated scf accuracy    <       0.00000225 Ry

     total magnetization       =     1.00 Bohr mag/cell
     absolute magnetization    =     1.08 Bohr mag/cell

     iteration # 12     ecut=    32.00 Ry     beta= 0.70
     Davidson diagonalization with overlap
     ethr =  1.57E-09,  avg # of iterations =  3.0

     total cpu time spent up to now is       32.8 secs

     total energy              =   -4618.32154162 Ry
     Harris-Foulkes estimate   =   -4618.32154009 Ry
     estimated scf accuracy    <       0.00000060 Ry

     total magnetization       =     1.00 Bohr mag/cell
     absolute magnetization    =     1.08 Bohr mag/cell

     iteration # 13     ecut=    32.00 Ry     beta= 0.70
     Davidson diagonalization with overlap
     ethr =  4.20E-10,  avg # of iterations =  2.5

     total cpu time spent up to now is       35.2 secs

     total energy              =   -4618.32154118 Ry
     Harris-Foulkes estimate   =   -4618.32154171 Ry
     estimated scf accuracy    <       0.00000009 Ry

     total magnetization       =     1.00 Bohr mag/cell
     absolute magnetization    =     1.08 Bohr mag/cell

     iteration # 14     ecut=    32.00 Ry     beta= 0.70
     Davidson diagonalization with overlap
     ethr =  6.40E-11,  avg # of iterations =  4.0

     total cpu time spent up to now is       37.9 secs

     total energy              =   -4618.32154118 Ry
     Harris-Foulkes estimate   =   -4618.32154120 Ry
     estimated scf accuracy    <       0.00000002 Ry

     total magnetization       =     1.00 Bohr mag/cell
     absolute magnetization    =     1.08 Bohr mag/cell

     iteration # 15     ecut=    32.00 Ry     beta= 0.70
     Davidson diagonalization with overlap
     ethr =  1.19E-11,  avg # of iterations =  3.0
 
     Magnetic moment per site:
     atom:    1    charge:    9.3979    magn:    0.0233    constr:    0.0000
     atom:    2    charge:    9.4064    magn:    0.0149    constr:    0.0000
     atom:    3    charge:    9.4280    magn:    0.0177    constr:    0.0000
     atom:    4    charge:    9.4056    magn:    0.0130    constr:    0.0000
     atom:    5    charge:    9.4057    magn:    0.0148    constr:    0.0000
     atom:    6    charge:    9.3981    magn:    0.0233    constr:    0.0000
     atom:    7    charge:    9.3953    magn:    0.0186    constr:    0.0000
     atom:    8    charge:    9.5593    magn:    0.0824    constr:    0.0000
     atom:    9    charge:    9.4247    magn:    0.0175    constr:    0.0000
     atom:   10    charge:    9.3950    magn:    0.0186    constr:    0.0000
     atom:   11    charge:    9.4288    magn:    0.0177    constr:    0.0000
     atom:   12    charge:    9.4056    magn:    0.0129    constr:    0.0000
     atom:   13    charge:    9.4243    magn:    0.0175    constr:    0.0000

     total cpu time spent up to now is       40.3 secs

     End of self-consistent calculation

 ------ SPIN UP ------------


          k = 0.0000 0.0000 0.0000 (  5198 PWs)   bands (ev):

    -2.7450  -2.2530  -2.1820  -2.1652  -2.1627  -2.1076  -1.3502  -1.2888
    -1.2383  -1.2221  -1.2116  -1.1839  -1.1142  -1.1074  -1.0924  -1.0491
    -1.0143  -1.0118  -0.9712  -0.9645  -0.9580  -0.7745  -0.7584  -0.7340
    -0.7229  -0.7193  -0.6457  -0.6350  -0.6152  -0.5643  -0.4633  -0.4180
    -0.3828  -0.3598  -0.3511  -0.3398  -0.3297  -0.2814  -0.2807  -0.0917
    -0.0276   0.0130   0.0132   0.0533   0.1031   0.1846   0.2277   0.2369
     0.2583   0.2591   0.3081   0.3361   0.3579   0.3743   0.4031   0.4804
     0.4895   0.5084   0.5216   0.5370   0.5516   0.5647   0.6069   0.6327
     0.6784   0.7955   1.7334   1.7506   1.8228   2.3484   2.4159   3.2291
     4.4002   4.5651   4.7237   4.7945   5.4004   5.4151   5.7399   5.7748
     5.8482   6.5008   6.9116   7.2814   7.3711   7.9027

     occupation numbers 
     1.0000   1.0000   1.0000   1.0000   1.0000   1.0000   1.0000   1.0000
     1.0000   1.0000   1.0000   1.0000   1.0000   1.0000   1.0000   1.0000
     1.0000   1.0000   1.0000   1.0000   1.0000   1.0000   1.0000   1.0000
     1.0000   1.0000   1.0000   1.0000   1.0000   1.0000   1.0000   1.0000
     1.0000   1.0000   1.0000   1.0000   1.0000   1.0000   1.0000   1.0000
     1.0000   1.0000   1.0000   1.0000   1.0000   1.0000   1.0000   1.0000
     1.0000   1.0000   1.0000   1.0000   1.0000   1.0000   1.0000   1.0000
     1.0000   1.0000   1.0000   1.0000   1.0000   1.0000   1.0000   1.0000
     1.0000   1.0000   1.0000   1.0000   1.0000   1.0000   1.0000   0.9987
     0.0000   0.0000   0.0000   0.0000   0.0000   0.0000   0.0000   0.0000
     0.0000   0.0000   0.0000   0.0000   0.0000   0.0000

 ------ SPIN DOWN ----------


          k = 0.0000 0.0000 0.0000 (  5198 PWs)   bands (ev):

    -2.6526  -2.2040  -2.1338  -2.1185  -2.1165  -2.0615  -1.3100  -1.2527
    -1.2084  -1.2043  -1.1917  -1.1713  -1.0993  -1.0983  -1.0860  -1.0350
    -1.0065  -0.9935  -0.9657  -0.9573  -0.9499  -0.7595  -0.7410  -0.7166
    -0.7035  -0.7006  -0.6300  -0.6212  -0.5997  -0.5473  -0.4460  -0.4062
    -0.3756  -0.3478  -0.3434  -0.3340  -0.3242  -0.2741  -0.2693  -0.0575
    -0.0094   0.0281   0.0500   0.0931   0.1203   0.1992   0.2445   0.2499
     0.2675   0.2766   0.3181   0.3449   0.3711   0.3972   0.4148   0.4915
     0.5200   0.5262   0.5334   0.5634   0.5643   0.5775   0.6153   0.6468
     0.6931   0.8189   1.7680   1.7865   1.8646   2.4152   2.4831   3.3555
     4.4487   4.6049   4.7478   4.9004   5.4664   5.4927   5.7874   5.8418
     5.9117   6.6553   6.9615   7.2916   7.4069   7.9750

     occupation numbers 
     1.0000   1.0000   1.0000   1.0000   1.0000   1.0000   1.0000   1.0000
     1.0000   1.0000   1.0000   1.0000   1.0000   1.0000   1.0000   1.0000
     1.0000   1.0000   1.0000   1.0000   1.0000   1.0000   1.0000   1.0000
     1.0000   1.0000   1.0000   1.0000   1.0000   1.0000   1.0000   1.0000
     1.0000   1.0000   1.0000   1.0000   1.0000   1.0000   1.0000   1.0000
     1.0000   1.0000   1.0000   1.0000   1.0000   1.0000   1.0000   1.0000
     1.0000   1.0000   1.0000   1.0000   1.0000   1.0000   1.0000   1.0000
     1.0000   1.0000   1.0000   1.0000   1.0000   1.0000   1.0000   1.0000
     1.0000   1.0000   1.0000   1.0000   1.0000   1.0000   1.0000   0.0013
     0.0000   0.0000   0.0000   0.0000   0.0000   0.0000   0.0000   0.0000
     0.0000   0.0000   0.0000   0.0000   0.0000   0.0000

     the Fermi energy is     3.2923 ev

!    total energy              =   -4618.32154100 Ry
     Harris-Foulkes estimate   =   -4618.32154119 Ry
     estimated scf accuracy    <          4.3E-09 Ry

     total all-electron energy =   -138218.880262 Ry

     The total energy is the sum of the following terms:

     one-electron contribution =    -946.68520566 Ry
     hartree contribution      =     607.78141822 Ry
     xc contribution           =    -462.99331366 Ry
     ewald contribution        =    -403.99872614 Ry
     one-center paw contrib.   =   -3412.42569974 Ry
      -> PAW hartree energy AE =      66.56157296 Ry
      -> PAW hartree energy PS =     -66.40991098 Ry
      -> PAW xc energy AE      =    -297.84144383 Ry
      -> PAW xc energy PS      =      35.19864967 Ry
      -> total E_H with PAW    =     607.93308020 Ry
      -> total E_XC with PAW   =    -725.63610782 Ry
     smearing contrib. (-TS)   =      -0.00001402 Ry

     total magnetization       =     1.00 Bohr mag/cell
     absolute magnetization    =     1.08 Bohr mag/cell

     convergence has been achieved in  15 iterations

     Writing output data file ./tmp/ag13.save/
 
     init_run     :      1.94s CPU      2.05s WALL (       1 calls)
     electrons    :     35.56s CPU     36.39s WALL (       1 calls)

     Called by init_run:
     wfcinit      :      0.32s CPU      0.34s WALL (       1 calls)
     wfcinit:atom :      0.00s CPU      0.00s WALL (       2 calls)
     wfcinit:wfcr :      0.31s CPU      0.33s WALL (       2 calls)
     potinit      :      1.35s CPU      1.42s WALL (       1 calls)
     hinit0       :      0.16s CPU      0.16s WALL (       1 calls)

     Called by electrons:
     c_bands      :     10.81s CPU     11.18s WALL (      15 calls)
     sum_band     :      2.81s CPU      2.98s WALL (      15 calls)
     v_of_rho     :      0.98s CPU      1.02s WALL (      16 calls)
     v_h          :      0.05s CPU      0.05s WALL (      16 calls)
     v_xc         :      0.94s CPU      0.97s WALL (      16 calls)
     newd         :      0.98s CPU      1.06s WALL (      16 calls)
     PAW_pot      :     20.56s CPU     20.71s WALL (      16 calls)
     mix_rho      :      0.63s CPU      0.65s WALL (      15 calls)

     Called by c_bands:
     init_us_2    :      0.08s CPU      0.08s WALL (      62 calls)
     regterg      :     10.37s CPU     10.73s WALL (      30 calls)

     Called by sum_band:
     sum_band:bec :      0.02s CPU      0.02s WALL (      30 calls)
     addusdens    :      1.20s CPU      1.33s WALL (      15 calls)

     Called by *egterg:
     h_psi        :      5.87s CPU      6.03s WALL (     119 calls)
     s_psi        :      0.57s CPU      0.57s WALL (     119 calls)
     g_psi        :      0.02s CPU      0.03s WALL (      87 calls)
     rdiaghg      :      2.64s CPU      2.83s WALL (     117 calls)
     regterg:over :      0.56s CPU      0.56s WALL (      87 calls)
     regterg:upda :      0.43s CPU      0.44s WALL (      87 calls)
     regterg:last :      0.20s CPU      0.20s WALL (      30 calls)
     rdiaghg:chol :      0.10s CPU      0.10s WALL (     117 calls)
     rdiaghg:inve :      0.08s CPU      0.08s WALL (     117 calls)
     rdiaghg:para :      0.21s CPU      0.22s WALL (     234 calls)

     Called by h_psi:
     h_psi:calbec :      0.63s CPU      0.64s WALL (     119 calls)
     vloc_psi     :      4.54s CPU      4.69s WALL (     119 calls)
     add_vuspsi   :      0.66s CPU      0.67s WALL (     119 calls)

     General routines
     calbec       :      0.87s CPU      0.88s WALL (     149 calls)
     fft          :      0.71s CPU      0.74s WALL (     329 calls)
     ffts         :      0.39s CPU      0.39s WALL (     272 calls)
     fftw         :      4.73s CPU      4.89s WALL (    7416 calls)
     interpolate  :      0.13s CPU      0.13s WALL (      32 calls)
 
     Parallel routines
     fft_scatt_xy :      0.89s CPU      0.92s WALL (    8017 calls)
     fft_scatt_yz :      2.33s CPU      2.41s WALL (    8017 calls)

     PAW routines
     PAW_pot      :     20.56s CPU     20.71s WALL (      16 calls)
 
     PWSCF        :     39.39s CPU     40.47s WALL

 
   This run was terminated on:  12:31:18   4Jun2020            

=------------------------------------------------------------------------------=
   JOB DONE.
=------------------------------------------------------------------------------=
