
     Program PWSCF v.6.5 starts on  4Jan2021 at  1:34:58 

     This program is part of the open-source Quantum ESPRESSO suite
     for quantum simulation of materials; please cite
         "P. Giannozzi et al., J. Phys.:Condens. Matter 21 395502 (2009);
         "P. Giannozzi et al., J. Phys.:Condens. Matter 29 465901 (2017);
          URL http://www.quantum-espresso.org", 
     in publications or presentations arising from this work. More details at
     http://www.quantum-espresso.org/quote

     Parallel version (MPI & OpenMP), running on      24 processor cores
     Number of MPI processes:                24
     Threads/MPI process:                     1

     MPI processes distributed on     1 nodes
     R & G space division:  proc/nbgrp/npool/nimage =      24
     Waiting for input...
     Reading input from standard input

     Current dimensions of program PWSCF are:
     Max number of different atomic species (ntypx) = 10
     Max number of k-points (npk) =  40000
     Max angular momentum in pseudopotentials (lmaxx) =  3
               file Ag.pbe-dn-kjpaw_psl.0.1.UPF: wavefunction(s)  5S 5P 4D renormalized
               file Bi.pbe-dn-kjpaw_psl.1.0.0.UPF: wavefunction(s)  6P 5D renormalized

     gamma-point specific algorithms are used

     Subspace diagonalization in iterative solution of the eigenvalue problem:
     one sub-group per band group will be used
     scalapack distributed-memory algorithm (size of sub-group:  4*  4 procs)

 
     Parallelization info
     --------------------
     sticks:   dense  smooth     PW     G-vecs:    dense   smooth      PW
     Min        1430     953    237               199758   108738   13581
     Max        1433     956    240               199772   108748   13592
     Sum       34357   22901   5721              4794373  2609847  326029
 


     bravais-lattice index     =            1
     lattice parameter (alat)  =      30.0000  a.u.
     unit-cell volume          =   27000.0000 (a.u.)^3
     number of atoms/cell      =           13
     number of atomic types    =            2
     number of electrons       =       147.00
     number of Kohn-Sham states=           89
     kinetic-energy cutoff     =      80.0000  Ry
     charge density cutoff     =     480.0000  Ry
     convergence threshold     =      1.0E-08
     mixing beta               =       0.7000
     number of iterations used =            8  local-TF  mixing
     Exchange-correlation= SLA PW PBX PBC
                           (   1   4   3   4   0   0   0)

     celldm(1)=  30.000000  celldm(2)=   0.000000  celldm(3)=   0.000000
     celldm(4)=   0.000000  celldm(5)=   0.000000  celldm(6)=   0.000000

     crystal axes: (cart. coord. in units of alat)
               a(1) = (   1.000000   0.000000   0.000000 )  
               a(2) = (   0.000000   1.000000   0.000000 )  
               a(3) = (   0.000000   0.000000   1.000000 )  

     reciprocal axes: (cart. coord. in units 2 pi/alat)
               b(1) = (  1.000000  0.000000  0.000000 )  
               b(2) = (  0.000000  1.000000  0.000000 )  
               b(3) = (  0.000000  0.000000  1.000000 )  


     PseudoPot. # 1 for Ag read from file:
     ../../pseudo/Ag.pbe-dn-kjpaw_psl.0.1.UPF
     MD5 check sum: 2edc915f30f03476250949c796a6a376
     Pseudo is Projector augmented-wave + core cor, Zval = 11.0
     Generated using "atomic" code by A. Dal Corso v.5.0.2 svn rev. 9415
     Shape of augmentation charge: PSQ
     Using radial grid of 1237 points,  6 beta functions with: 
                l(1) =   0
                l(2) =   0
                l(3) =   1
                l(4) =   1
                l(5) =   2
                l(6) =   2
     Q(r) pseudized with 0 coefficients 


     PseudoPot. # 2 for Bi read from file:
     ../../pseudo/Bi.pbe-dn-kjpaw_psl.1.0.0.UPF
     MD5 check sum: 266ded784ae3bc462508ed03f0f37963
     Pseudo is Projector augmented-wave + core cor, Zval = 15.0
     Generated using "atomic" code by A. Dal Corso v.6.2.2
     Shape of augmentation charge: PSQ
     Using radial grid of 1283 points,  6 beta functions with: 
                l(1) =   0
                l(2) =   0
                l(3) =   1
                l(4) =   1
                l(5) =   2
                l(6) =   2
     Q(r) pseudized with 0 coefficients 


     atomic species   valence    mass     pseudopotential
        Ag            11.00   107.87000     Ag( 1.00)
        Bi            15.00   208.98000     Bi( 1.00)

     Starting magnetic structure 
     atomic species   magnetization
        Ag           0.700
        Bi           0.000

     No symmetry found


                                    s                        frac. trans.

      isym =  1     identity                                     

 cryst.   s( 1) = (     1          0          0      )
                  (     0          1          0      )
                  (     0          0          1      )

 cart.    s( 1) = (  1.0000000  0.0000000  0.0000000 )
                  (  0.0000000  1.0000000  0.0000000 )
                  (  0.0000000  0.0000000  1.0000000 )


     point group C_1 (1)    
     there are  1 classes
     the character table:

       E    
A      1.00

     the symmetry operations in each class and the name of the first element:

     E        1
          identity                                               

   Cartesian axes

     site n.     atom                  positions (alat units)
         1           Ag  tau(   1) = (   0.1482164   0.1449496   0.2853705  )
         2           Ag  tau(   2) = (   0.1794160   0.3113257   0.3563652  )
         3           Ag  tau(   3) = (   0.4315329   0.2203186   0.2297755  )
         4           Ag  tau(   4) = (   0.3104401   0.1833726   0.3621717  )
         5           Ag  tau(   5) = (   0.3479443   0.2058768   0.0669794  )
         6           Ag  tau(   6) = (   0.3753741   0.3710792   0.1421455  )
         7           Ag  tau(   7) = (   0.1713498   0.1603092   0.1017503  )
         8           Ag  tau(   8) = (   0.2598156   0.2557977   0.2093519  )
         9           Ag  tau(   9) = (   0.2195484   0.4273174   0.2203687  )
        10           Bi  tau(  10) = (   0.3601669   0.3641017   0.3313630  )
        11           Ag  tau(  11) = (   0.0909362   0.2985977   0.1960131  )
        12           Ag  tau(  12) = (   0.2144206   0.3363141   0.0610748  )
        13           Ag  tau(  13) = (   0.3070306   0.0876049   0.2056120  )

   Crystallographic axes

     site n.     atom                  positions (cryst. coord.)
         1           Ag  tau(   1) = (  0.1482164  0.1449496  0.2853705  )
         2           Ag  tau(   2) = (  0.1794160  0.3113257  0.3563652  )
         3           Ag  tau(   3) = (  0.4315329  0.2203186  0.2297755  )
         4           Ag  tau(   4) = (  0.3104401  0.1833726  0.3621717  )
         5           Ag  tau(   5) = (  0.3479443  0.2058768  0.0669794  )
         6           Ag  tau(   6) = (  0.3753741  0.3710792  0.1421455  )
         7           Ag  tau(   7) = (  0.1713498  0.1603092  0.1017503  )
         8           Ag  tau(   8) = (  0.2598156  0.2557977  0.2093519  )
         9           Ag  tau(   9) = (  0.2195484  0.4273174  0.2203687  )
        10           Bi  tau(  10) = (  0.3601669  0.3641017  0.3313630  )
        11           Ag  tau(  11) = (  0.0909362  0.2985977  0.1960131  )
        12           Ag  tau(  12) = (  0.2144206  0.3363141  0.0610748  )
        13           Ag  tau(  13) = (  0.3070306  0.0876049  0.2056120  )

     number of k points=     1  Fermi-Dirac smearing, width (Ry)=  0.0007
                       cart. coord. in units 2pi/alat
        k(    1) = (   0.0000000   0.0000000   0.0000000), wk =   1.0000000

                       cryst. coord.
        k(    1) = (   0.0000000   0.0000000   0.0000000), wk =   1.0000000

     Dense  grid:  2397187 G-vectors     FFT dimensions: ( 216, 216, 216)

     Smooth grid:  1304924 G-vectors     FFT dimensions: ( 180, 180, 180)

     Dynamical RAM for                 wfc:       9.23 MB

     Dynamical RAM for     wfc (w. buffer):      27.69 MB

     Dynamical RAM for           str. fact:       3.05 MB

     Dynamical RAM for           local pot:       0.00 MB

     Dynamical RAM for          nlocal pot:      24.27 MB

     Dynamical RAM for                qrad:      16.77 MB

     Dynamical RAM for          rho,v,vnew:      28.37 MB

     Dynamical RAM for               rhoin:       9.46 MB

     Dynamical RAM for            rho*nmix:      48.77 MB

     Dynamical RAM for           G-vectors:       6.13 MB

     Dynamical RAM for          h,s,v(r/c):       0.18 MB

     Dynamical RAM for          <psi|beta>:       0.16 MB

     Dynamical RAM for                 psi:      36.92 MB

     Dynamical RAM for                hpsi:      36.92 MB

     Dynamical RAM for                spsi:      36.92 MB

     Dynamical RAM for      wfcinit/wfcrot:      24.58 MB

     Dynamical RAM for           addusdens:     303.30 MB

     Estimated static dynamical RAM per process >     188.29 MB

     Estimated max dynamical RAM per process >     491.59 MB

     Estimated total dynamical RAM >      11.52 GB
     Generating pointlists ...
     new r_m :   0.0697 (alat units)  2.0900 (a.u.) for type    1
     new r_m :   0.0784 (alat units)  2.3506 (a.u.) for type    2

     Check: negative core charge=   -0.000001

     Initial potential from superposition of free atoms

     starting charge  146.99440, renormalised to  147.00000
     Starting wfcs are  117 randomized atomic wfcs
     Checking if some PAW data can be deallocated... 
       PAW data deallocated on    2 nodes for type:  1
       PAW data deallocated on   22 nodes for type:  2

     total cpu time spent up to now is       41.8 secs

     Self-consistent Calculation

     iteration #  1     ecut=    80.00 Ry     beta= 0.70
     Davidson diagonalization with overlap
     ethr =  1.00E-02,  avg # of iterations =  3.5

     total cpu time spent up to now is      115.5 secs

     total energy              =   -5168.34930368 Ry
     Harris-Foulkes estimate   =   -5162.03914684 Ry
     estimated scf accuracy    <       6.70905910 Ry

     total magnetization       =     5.00 Bohr mag/cell
     absolute magnetization    =     5.46 Bohr mag/cell

     iteration #  2     ecut=    80.00 Ry     beta= 0.70
     Davidson diagonalization with overlap
     ethr =  4.56E-03,  avg # of iterations =  1.0

     total cpu time spent up to now is      182.1 secs

     total energy              =   -5169.20106637 Ry
     Harris-Foulkes estimate   =   -5168.56216879 Ry
     estimated scf accuracy    <       0.93726842 Ry

     total magnetization       =     3.00 Bohr mag/cell
     absolute magnetization    =     3.41 Bohr mag/cell

     iteration #  3     ecut=    80.00 Ry     beta= 0.70
     Davidson diagonalization with overlap
     ethr =  6.38E-04,  avg # of iterations =  2.5

     total cpu time spent up to now is      250.6 secs

     total energy              =   -5169.25343364 Ry
     Harris-Foulkes estimate   =   -5169.26448511 Ry
     estimated scf accuracy    <       0.08021323 Ry

     total magnetization       =     2.98 Bohr mag/cell
     absolute magnetization    =     3.08 Bohr mag/cell

     iteration #  4     ecut=    80.00 Ry     beta= 0.70
     Davidson diagonalization with overlap
     ethr =  5.46E-05,  avg # of iterations = 10.0

     total cpu time spent up to now is      337.9 secs

     total energy              =   -5169.26432803 Ry
     Harris-Foulkes estimate   =   -5169.27193320 Ry
     estimated scf accuracy    <       0.03644177 Ry

     total magnetization       =     3.00 Bohr mag/cell
     absolute magnetization    =     3.10 Bohr mag/cell

     iteration #  5     ecut=    80.00 Ry     beta= 0.70
     Davidson diagonalization with overlap
     ethr =  2.48E-05,  avg # of iterations =  2.5

     total cpu time spent up to now is      405.7 secs

     total energy              =   -5169.25897313 Ry
     Harris-Foulkes estimate   =   -5169.26593808 Ry
     estimated scf accuracy    <       0.02023701 Ry

     total magnetization       =     3.00 Bohr mag/cell
     absolute magnetization    =     3.13 Bohr mag/cell

     iteration #  6     ecut=    80.00 Ry     beta= 0.70
     Davidson diagonalization with overlap
     ethr =  1.38E-05,  avg # of iterations =  9.5

     total cpu time spent up to now is      482.1 secs

     total energy              =   -5169.25742784 Ry
     Harris-Foulkes estimate   =   -5169.26013288 Ry
     estimated scf accuracy    <       0.01083331 Ry

     total magnetization       =     3.00 Bohr mag/cell
     absolute magnetization    =     3.16 Bohr mag/cell

     iteration #  7     ecut=    80.00 Ry     beta= 0.70
     Davidson diagonalization with overlap
     ethr =  7.37E-06,  avg # of iterations =  7.5

     total cpu time spent up to now is      556.9 secs

     total energy              =   -5169.25564920 Ry
     Harris-Foulkes estimate   =   -5169.25799358 Ry
     estimated scf accuracy    <       0.00563864 Ry

     total magnetization       =     3.00 Bohr mag/cell
     absolute magnetization    =     3.15 Bohr mag/cell

     iteration #  8     ecut=    80.00 Ry     beta= 0.70
     Davidson diagonalization with overlap
     ethr =  3.84E-06,  avg # of iterations = 11.0

     total cpu time spent up to now is      634.9 secs

     total energy              =   -5169.25754247 Ry
     Harris-Foulkes estimate   =   -5169.25588154 Ry
     estimated scf accuracy    <       0.00349262 Ry

     total magnetization       =     3.00 Bohr mag/cell
     absolute magnetization    =     3.15 Bohr mag/cell

     iteration #  9     ecut=    80.00 Ry     beta= 0.70
     Davidson diagonalization with overlap
     ethr =  2.38E-06,  avg # of iterations =  6.5

     total cpu time spent up to now is      709.7 secs

     total energy              =   -5169.25992167 Ry
     Harris-Foulkes estimate   =   -5169.25769729 Ry
     estimated scf accuracy    <       0.00181848 Ry

     total magnetization       =     3.00 Bohr mag/cell
     absolute magnetization    =     3.15 Bohr mag/cell

     iteration # 10     ecut=    80.00 Ry     beta= 0.70
     Davidson diagonalization with overlap
     ethr =  1.24E-06,  avg # of iterations =  9.0

     total cpu time spent up to now is      785.8 secs

     total energy              =   -5169.26051697 Ry
     Harris-Foulkes estimate   =   -5169.26000157 Ry
     estimated scf accuracy    <       0.00089962 Ry

     total magnetization       =     3.00 Bohr mag/cell
     absolute magnetization    =     3.14 Bohr mag/cell

     iteration # 11     ecut=    80.00 Ry     beta= 0.70
     Davidson diagonalization with overlap
     ethr =  6.12E-07,  avg # of iterations = 10.0

     total cpu time spent up to now is      860.9 secs

     total energy              =   -5169.26093186 Ry
     Harris-Foulkes estimate   =   -5169.26056586 Ry
     estimated scf accuracy    <       0.00052277 Ry

     total magnetization       =     3.00 Bohr mag/cell
     absolute magnetization    =     3.14 Bohr mag/cell

     iteration # 12     ecut=    80.00 Ry     beta= 0.70
     Davidson diagonalization with overlap
     ethr =  3.56E-07,  avg # of iterations =  6.0

     total cpu time spent up to now is      930.7 secs

     total energy              =   -5169.26094600 Ry
     Harris-Foulkes estimate   =   -5169.26095106 Ry
     estimated scf accuracy    <       0.00031860 Ry

     total magnetization       =     3.00 Bohr mag/cell
     absolute magnetization    =     3.14 Bohr mag/cell

     iteration # 13     ecut=    80.00 Ry     beta= 0.70
     Davidson diagonalization with overlap
     ethr =  2.17E-07,  avg # of iterations =  9.0

     total cpu time spent up to now is     1006.4 secs

     total energy              =   -5169.26090771 Ry
     Harris-Foulkes estimate   =   -5169.26096685 Ry
     estimated scf accuracy    <       0.00011489 Ry

     total magnetization       =     3.00 Bohr mag/cell
     absolute magnetization    =     3.14 Bohr mag/cell

     iteration # 14     ecut=    80.00 Ry     beta= 0.70
     Davidson diagonalization with overlap
     ethr =  7.82E-08,  avg # of iterations =  5.5

     total cpu time spent up to now is     1074.6 secs

     total energy              =   -5169.26105706 Ry
     Harris-Foulkes estimate   =   -5169.26091093 Ry
     estimated scf accuracy    <       0.00005354 Ry

     total magnetization       =     3.00 Bohr mag/cell
     absolute magnetization    =     3.14 Bohr mag/cell

     iteration # 15     ecut=    80.00 Ry     beta= 0.70
     Davidson diagonalization with overlap
     ethr =  3.64E-08,  avg # of iterations =  8.5

     total cpu time spent up to now is     1147.8 secs

     total energy              =   -5169.26111680 Ry
     Harris-Foulkes estimate   =   -5169.26106104 Ry
     estimated scf accuracy    <       0.00001638 Ry

     total magnetization       =     3.00 Bohr mag/cell
     absolute magnetization    =     3.14 Bohr mag/cell

     iteration # 16     ecut=    80.00 Ry     beta= 0.70
     Davidson diagonalization with overlap
     ethr =  1.11E-08,  avg # of iterations =  3.0

     total cpu time spent up to now is     1214.7 secs

     total energy              =   -5169.26113552 Ry
     Harris-Foulkes estimate   =   -5169.26111758 Ry
     estimated scf accuracy    <       0.00000897 Ry

     total magnetization       =     3.00 Bohr mag/cell
     absolute magnetization    =     3.14 Bohr mag/cell

     iteration # 17     ecut=    80.00 Ry     beta= 0.70
     Davidson diagonalization with overlap
     ethr =  6.10E-09,  avg # of iterations =  8.5

     total cpu time spent up to now is     1285.5 secs

     total energy              =   -5169.26113888 Ry
     Harris-Foulkes estimate   =   -5169.26113639 Ry
     estimated scf accuracy    <       0.00000269 Ry

     total magnetization       =     3.00 Bohr mag/cell
     absolute magnetization    =     3.14 Bohr mag/cell

     iteration # 18     ecut=    80.00 Ry     beta= 0.70
     Davidson diagonalization with overlap
     ethr =  1.83E-09,  avg # of iterations =  2.5

     total cpu time spent up to now is     1351.4 secs

     total energy              =   -5169.26114340 Ry
     Harris-Foulkes estimate   =   -5169.26113901 Ry
     estimated scf accuracy    <       0.00000088 Ry

     total magnetization       =     3.00 Bohr mag/cell
     absolute magnetization    =     3.14 Bohr mag/cell

     iteration # 19     ecut=    80.00 Ry     beta= 0.70
     Davidson diagonalization with overlap
     ethr =  5.96E-10,  avg # of iterations =  4.0

     total cpu time spent up to now is     1419.2 secs

     total energy              =   -5169.26114441 Ry
     Harris-Foulkes estimate   =   -5169.26114351 Ry
     estimated scf accuracy    <       0.00000026 Ry

     total magnetization       =     3.00 Bohr mag/cell
     absolute magnetization    =     3.14 Bohr mag/cell

     iteration # 20     ecut=    80.00 Ry     beta= 0.70
     Davidson diagonalization with overlap
     ethr =  1.79E-10,  avg # of iterations =  3.0

     total cpu time spent up to now is     1485.1 secs

     total energy              =   -5169.26114502 Ry
     Harris-Foulkes estimate   =   -5169.26114443 Ry
     estimated scf accuracy    <       0.00000011 Ry

     total magnetization       =     3.00 Bohr mag/cell
     absolute magnetization    =     3.14 Bohr mag/cell

     iteration # 21     ecut=    80.00 Ry     beta= 0.70
     Davidson diagonalization with overlap
     ethr =  7.25E-11,  avg # of iterations =  4.0

     total cpu time spent up to now is     1553.6 secs

     total energy              =   -5169.26114515 Ry
     Harris-Foulkes estimate   =   -5169.26114503 Ry
     estimated scf accuracy    <       0.00000003 Ry

     total magnetization       =     3.00 Bohr mag/cell
     absolute magnetization    =     3.14 Bohr mag/cell

     iteration # 22     ecut=    80.00 Ry     beta= 0.70
     Davidson diagonalization with overlap
     ethr =  2.03E-11,  avg # of iterations =  2.5

     total cpu time spent up to now is     1620.4 secs

     total energy              =   -5169.26114524 Ry
     Harris-Foulkes estimate   =   -5169.26114516 Ry
     estimated scf accuracy    <       0.00000001 Ry

     total magnetization       =     3.00 Bohr mag/cell
     absolute magnetization    =     3.14 Bohr mag/cell

     iteration # 23     ecut=    80.00 Ry     beta= 0.70
     Davidson diagonalization with overlap
     ethr =  9.61E-12,  avg # of iterations =  4.5
 
     Magnetic moment per site:
     atom:    1    charge:    9.2278    magn:    0.0512    constr:    0.0000
     atom:    2    charge:    9.2283    magn:    0.0703    constr:    0.0000
     atom:    3    charge:    9.2282    magn:    0.0703    constr:    0.0000
     atom:    4    charge:    9.2282    magn:    0.0703    constr:    0.0000
     atom:    5    charge:    9.2278    magn:    0.0511    constr:    0.0000
     atom:    6    charge:    9.2283    magn:    0.0703    constr:    0.0000
     atom:    7    charge:    9.2309    magn:    0.0280    constr:    0.0000
     atom:    8    charge:    9.3244    magn:    0.1107    constr:    0.0000
     atom:    9    charge:    9.2283    magn:    0.0703    constr:    0.0000
     atom:   10    charge:   12.6162    magn:    0.1156    constr:    0.0000
     atom:   11    charge:    9.2278    magn:    0.0511    constr:    0.0000
     atom:   12    charge:    9.2277    magn:    0.0512    constr:    0.0000
     atom:   13    charge:    9.2277    magn:    0.0511    constr:    0.0000

     total cpu time spent up to now is     1684.6 secs

     End of self-consistent calculation

 ------ SPIN UP ------------


          k = 0.0000 0.0000 0.0000 (163015 PWs)   bands (ev):

   -25.6043 -25.5810 -25.5810 -25.4914 -25.4914 -13.7449  -9.1676  -8.8593
    -8.8592  -8.8167  -8.8166  -8.7427  -7.9391  -7.9389  -7.8239  -7.8237
    -7.8004  -7.7777  -7.6953  -7.6953  -7.6805  -7.6805  -7.6272  -7.6270
    -7.5567  -7.5566  -7.4544  -7.4542  -7.4324  -7.4098  -7.3253  -7.3252
    -7.2914  -7.2911  -7.0232  -7.0109  -7.0045  -7.0042  -6.9911  -6.9908
    -6.9626  -6.9623  -6.7763  -6.7395  -6.7394  -6.5945  -6.5944  -6.4729
    -6.4728  -6.4551  -6.4551  -6.3776  -6.3386  -6.3385  -6.3341  -6.3338
    -6.3007  -6.2971  -6.2970  -6.2178  -6.2067  -6.2066  -6.1764  -6.1763
    -6.1352  -6.1351  -6.0659  -5.5305  -5.5303  -4.8915  -3.9092  -3.9092
    -3.1878  -3.1874  -3.1044  -2.0885  -1.8109  -1.8107  -1.5592  -1.1127
    -1.1113  -0.7787  -0.7767  -0.7081  -0.7072   0.1877   0.4073   0.4075
     0.4413

     occupation numbers 
     1.0000   1.0000   1.0000   1.0000   1.0000   1.0000   1.0000   1.0000
     1.0000   1.0000   1.0000   1.0000   1.0000   1.0000   1.0000   1.0000
     1.0000   1.0000   1.0000   1.0000   1.0000   1.0000   1.0000   1.0000
     1.0000   1.0000   1.0000   1.0000   1.0000   1.0000   1.0000   1.0000
     1.0000   1.0000   1.0000   1.0000   1.0000   1.0000   1.0000   1.0000
     1.0000   1.0000   1.0000   1.0000   1.0000   1.0000   1.0000   1.0000
     1.0000   1.0000   1.0000   1.0000   1.0000   1.0000   1.0000   1.0000
     1.0000   1.0000   1.0000   1.0000   1.0000   1.0000   1.0000   1.0000
     1.0000   1.0000   1.0000   1.0000   1.0000   1.0000   1.0000   1.0000
     1.0000   1.0000   1.0000   0.0000   0.0000   0.0000   0.0000   0.0000
     0.0000   0.0000   0.0000   0.0000   0.0000   0.0000   0.0000   0.0000
     0.0000

 ------ SPIN DOWN ----------


          k = 0.0000 0.0000 0.0000 (163015 PWs)   bands (ev):

   -25.5444 -25.5385 -25.5385 -25.4876 -25.4876 -13.5932  -9.1153  -8.7853
    -8.7852  -8.7737  -8.7735  -8.6739  -7.8816  -7.8814  -7.7646  -7.7645
    -7.7100  -7.6783  -7.6418  -7.6417  -7.6314  -7.6314  -7.5545  -7.5544
    -7.4938  -7.4936  -7.3859  -7.3672  -7.3670  -7.2890  -7.2611  -7.2611
    -7.2203  -7.2199  -6.9726  -6.9565  -6.9561  -6.9557  -6.9404  -6.9400
    -6.9163  -6.9160  -6.7044  -6.6765  -6.6764  -6.5288  -6.5287  -6.4223
    -6.4222  -6.4081  -6.4081  -6.3057  -6.2928  -6.2927  -6.2891  -6.2888
    -6.2487  -6.2486  -6.2404  -6.1622  -6.1572  -6.1572  -6.1178  -6.1177
    -6.0726  -6.0724  -6.0334  -5.3635  -5.3633  -4.7730  -3.7815  -3.7815
    -2.8611  -2.8606  -2.7614  -1.9468  -1.6215  -1.6213  -1.3298  -0.8769
    -0.8758  -0.4990  -0.4988  -0.4572  -0.4544   0.3326   0.5405   0.6251
     0.6290

     occupation numbers 
     1.0000   1.0000   1.0000   1.0000   1.0000   1.0000   1.0000   1.0000
     1.0000   1.0000   1.0000   1.0000   1.0000   1.0000   1.0000   1.0000
     1.0000   1.0000   1.0000   1.0000   1.0000   1.0000   1.0000   1.0000
     1.0000   1.0000   1.0000   1.0000   1.0000   1.0000   1.0000   1.0000
     1.0000   1.0000   1.0000   1.0000   1.0000   1.0000   1.0000   1.0000
     1.0000   1.0000   1.0000   1.0000   1.0000   1.0000   1.0000   1.0000
     1.0000   1.0000   1.0000   1.0000   1.0000   1.0000   1.0000   1.0000
     1.0000   1.0000   1.0000   1.0000   1.0000   1.0000   1.0000   1.0000
     1.0000   1.0000   1.0000   1.0000   1.0000   1.0000   1.0000   1.0000
     0.0000   0.0000   0.0000   0.0000   0.0000   0.0000   0.0000   0.0000
     0.0000   0.0000   0.0000   0.0000   0.0000   0.0000   0.0000   0.0000
     0.0000

     the Fermi energy is    -2.9859 ev

!    total energy              =   -5169.26114534 Ry
     Harris-Foulkes estimate   =   -5169.26114524 Ry
     estimated scf accuracy    <          6.2E-09 Ry

     total all-electron energy =   -170648.311807 Ry

     The total energy is the sum of the following terms:

     one-electron contribution =   -3777.08257617 Ry
     hartree contribution      =    1984.36384574 Ry
     xc contribution           =    -459.87962607 Ry
     ewald contribution        =     989.86276629 Ry
     one-center paw contrib.   =   -3906.52555506 Ry
      -> PAW hartree energy AE =      66.87804317 Ry
      -> PAW hartree energy PS =     -66.73054722 Ry
      -> PAW xc energy AE      =    -297.86705618 Ry
      -> PAW xc energy PS      =      35.22458866 Ry
      -> total E_H with PAW    =    1984.51134169 Ry
      -> total E_XC with PAW   =    -722.52209359 Ry
     smearing contrib. (-TS)   =      -0.00000008 Ry

     total magnetization       =     3.00 Bohr mag/cell
     absolute magnetization    =     3.14 Bohr mag/cell

     convergence has been achieved in  23 iterations

     Writing output data file ./tmp/ag12Bil.save/
 
     init_run     :     36.40s CPU     37.71s WALL (       1 calls)
     electrons    :   1600.48s CPU   1643.12s WALL (       1 calls)

     Called by init_run:
     wfcinit      :     16.92s CPU     17.17s WALL (       1 calls)
     wfcinit:atom :      0.10s CPU      0.14s WALL (       2 calls)
     wfcinit:wfcr :     16.57s CPU     16.72s WALL (       2 calls)
     potinit      :      6.06s CPU      6.34s WALL (       1 calls)
     hinit0       :      2.55s CPU      2.61s WALL (       1 calls)

     Called by electrons:
     c_bands      :    734.35s CPU    744.00s WALL (      23 calls)
     sum_band     :    510.84s CPU    527.63s WALL (      23 calls)
     v_of_rho     :     81.88s CPU     82.73s WALL (      24 calls)
     v_h          :      5.24s CPU      5.26s WALL (      24 calls)
     v_xc         :     76.64s CPU     77.47s WALL (      24 calls)
     newd         :    148.31s CPU    161.99s WALL (      24 calls)
     PAW_pot      :     30.82s CPU     31.10s WALL (      24 calls)
     mix_rho      :     88.21s CPU     89.90s WALL (      23 calls)

     Called by c_bands:
     init_us_2    :      4.23s CPU      4.32s WALL (      94 calls)
     regterg      :    713.11s CPU    722.57s WALL (      46 calls)

     Called by sum_band:
     sum_band:bec :      0.02s CPU      0.03s WALL (      46 calls)
     addusdens    :    363.80s CPU    379.81s WALL (      23 calls)

     Called by *egterg:
     h_psi        :    579.11s CPU    582.32s WALL (     316 calls)
     s_psi        :     40.78s CPU     40.89s WALL (     316 calls)
     g_psi        :      1.16s CPU      1.17s WALL (     268 calls)
     rdiaghg      :      8.39s CPU      8.89s WALL (     314 calls)
     regterg:over :     36.09s CPU     36.18s WALL (     268 calls)
     regterg:upda :     34.39s CPU     34.87s WALL (     268 calls)
     regterg:last :      9.39s CPU      9.42s WALL (      46 calls)
     rdiaghg:chol :      0.30s CPU      0.30s WALL (     314 calls)
     rdiaghg:inve :      0.24s CPU      0.24s WALL (     314 calls)
     rdiaghg:para :      0.74s CPU      0.75s WALL (     628 calls)

     Called by h_psi:
     h_psi:calbec :     28.22s CPU     28.31s WALL (     316 calls)
     vloc_psi     :    504.24s CPU    507.20s WALL (     316 calls)
     add_vuspsi   :     44.07s CPU     44.21s WALL (     316 calls)

     General routines
     calbec       :     36.61s CPU     36.73s WALL (     362 calls)
     fft          :     81.20s CPU     81.62s WALL (     497 calls)
     ffts         :     55.68s CPU     55.96s WALL (     576 calls)
     fftw         :    491.06s CPU    493.76s WALL (   11782 calls)
     interpolate  :     14.47s CPU     14.60s WALL (      48 calls)
 
     Parallel routines
     fft_scatt_xy :    100.93s CPU    101.52s WALL (   12855 calls)
     fft_scatt_yz :    179.17s CPU    180.08s WALL (   12855 calls)

     PAW routines
     PAW_pot      :     30.82s CPU     31.10s WALL (      24 calls)
 
     PWSCF        :  27m21.53s CPU  28m 6.78s WALL

 
   This run was terminated on:   2: 3: 4   4Jan2021            

=------------------------------------------------------------------------------=
   JOB DONE.
=------------------------------------------------------------------------------=
