
     Program PWSCF v.6.5 starts on  4Jan2021 at  1:10:39 

     This program is part of the open-source Quantum ESPRESSO suite
     for quantum simulation of materials; please cite
         "P. Giannozzi et al., J. Phys.:Condens. Matter 21 395502 (2009);
         "P. Giannozzi et al., J. Phys.:Condens. Matter 29 465901 (2017);
          URL http://www.quantum-espresso.org", 
     in publications or presentations arising from this work. More details at
     http://www.quantum-espresso.org/quote

     Parallel version (MPI & OpenMP), running on      24 processor cores
     Number of MPI processes:                24
     Threads/MPI process:                     1

     MPI processes distributed on     1 nodes
     R & G space division:  proc/nbgrp/npool/nimage =      24
     Waiting for input...
     Reading input from standard input

     Current dimensions of program PWSCF are:
     Max number of different atomic species (ntypx) = 10
     Max number of k-points (npk) =  40000
     Max angular momentum in pseudopotentials (lmaxx) =  3
               file Ag.pbe-dn-kjpaw_psl.0.1.UPF: wavefunction(s)  5S 5P 4D renormalized
               file Bi.pbe-dn-kjpaw_psl.1.0.0.UPF: wavefunction(s)  6P 5D renormalized

     gamma-point specific algorithms are used

     Subspace diagonalization in iterative solution of the eigenvalue problem:
     one sub-group per band group will be used
     scalapack distributed-memory algorithm (size of sub-group:  4*  4 procs)

 
     Parallelization info
     --------------------
     sticks:   dense  smooth     PW     G-vecs:    dense   smooth      PW
     Min         953     953    237               108738   108738   13581
     Max         956     956    240               108748   108748   13592
     Sum       22901   22901   5721              2609847  2609847  326029
 


     bravais-lattice index     =            1
     lattice parameter (alat)  =      30.0000  a.u.
     unit-cell volume          =   27000.0000 (a.u.)^3
     number of atoms/cell      =           13
     number of atomic types    =            2
     number of electrons       =       147.00
     number of Kohn-Sham states=           89
     kinetic-energy cutoff     =      80.0000  Ry
     charge density cutoff     =     320.0000  Ry
     convergence threshold     =      1.0E-08
     mixing beta               =       0.7000
     number of iterations used =            8  local-TF  mixing
     Exchange-correlation= SLA PW PBX PBC
                           (   1   4   3   4   0   0   0)

     celldm(1)=  30.000000  celldm(2)=   0.000000  celldm(3)=   0.000000
     celldm(4)=   0.000000  celldm(5)=   0.000000  celldm(6)=   0.000000

     crystal axes: (cart. coord. in units of alat)
               a(1) = (   1.000000   0.000000   0.000000 )  
               a(2) = (   0.000000   1.000000   0.000000 )  
               a(3) = (   0.000000   0.000000   1.000000 )  

     reciprocal axes: (cart. coord. in units 2 pi/alat)
               b(1) = (  1.000000  0.000000  0.000000 )  
               b(2) = (  0.000000  1.000000  0.000000 )  
               b(3) = (  0.000000  0.000000  1.000000 )  


     PseudoPot. # 1 for Ag read from file:
     ../../pseudo/Ag.pbe-dn-kjpaw_psl.0.1.UPF
     MD5 check sum: 2edc915f30f03476250949c796a6a376
     Pseudo is Projector augmented-wave + core cor, Zval = 11.0
     Generated using "atomic" code by A. Dal Corso v.5.0.2 svn rev. 9415
     Shape of augmentation charge: PSQ
     Using radial grid of 1237 points,  6 beta functions with: 
                l(1) =   0
                l(2) =   0
                l(3) =   1
                l(4) =   1
                l(5) =   2
                l(6) =   2
     Q(r) pseudized with 0 coefficients 


     PseudoPot. # 2 for Bi read from file:
     ../../pseudo/Bi.pbe-dn-kjpaw_psl.1.0.0.UPF
     MD5 check sum: 266ded784ae3bc462508ed03f0f37963
     Pseudo is Projector augmented-wave + core cor, Zval = 15.0
     Generated using "atomic" code by A. Dal Corso v.6.2.2
     Shape of augmentation charge: PSQ
     Using radial grid of 1283 points,  6 beta functions with: 
                l(1) =   0
                l(2) =   0
                l(3) =   1
                l(4) =   1
                l(5) =   2
                l(6) =   2
     Q(r) pseudized with 0 coefficients 


     atomic species   valence    mass     pseudopotential
        Ag            11.00   107.87000     Ag( 1.00)
        Bi            15.00   208.98000     Bi( 1.00)

     Starting magnetic structure 
     atomic species   magnetization
        Ag           0.700
        Bi           0.000

     No symmetry found


                                    s                        frac. trans.

      isym =  1     identity                                     

 cryst.   s( 1) = (     1          0          0      )
                  (     0          1          0      )
                  (     0          0          1      )

 cart.    s( 1) = (  1.0000000  0.0000000  0.0000000 )
                  (  0.0000000  1.0000000  0.0000000 )
                  (  0.0000000  0.0000000  1.0000000 )


     point group C_1 (1)    
     there are  1 classes
     the character table:

       E    
A      1.00

     the symmetry operations in each class and the name of the first element:

     E        1
          identity                                               

   Cartesian axes

     site n.     atom                  positions (alat units)
         1           Ag  tau(   1) = (   0.1482164   0.1449496   0.2853705  )
         2           Ag  tau(   2) = (   0.1794160   0.3113257   0.3563652  )
         3           Ag  tau(   3) = (   0.4315329   0.2203186   0.2297755  )
         4           Ag  tau(   4) = (   0.3104401   0.1833726   0.3621717  )
         5           Ag  tau(   5) = (   0.3479443   0.2058768   0.0669794  )
         6           Ag  tau(   6) = (   0.3753741   0.3710792   0.1421455  )
         7           Ag  tau(   7) = (   0.1713498   0.1603092   0.1017503  )
         8           Ag  tau(   8) = (   0.2598156   0.2557977   0.2093519  )
         9           Ag  tau(   9) = (   0.2195484   0.4273174   0.2203687  )
        10           Bi  tau(  10) = (   0.3601669   0.3641017   0.3313630  )
        11           Ag  tau(  11) = (   0.0909362   0.2985977   0.1960131  )
        12           Ag  tau(  12) = (   0.2144206   0.3363141   0.0610748  )
        13           Ag  tau(  13) = (   0.3070306   0.0876049   0.2056120  )

   Crystallographic axes

     site n.     atom                  positions (cryst. coord.)
         1           Ag  tau(   1) = (  0.1482164  0.1449496  0.2853705  )
         2           Ag  tau(   2) = (  0.1794160  0.3113257  0.3563652  )
         3           Ag  tau(   3) = (  0.4315329  0.2203186  0.2297755  )
         4           Ag  tau(   4) = (  0.3104401  0.1833726  0.3621717  )
         5           Ag  tau(   5) = (  0.3479443  0.2058768  0.0669794  )
         6           Ag  tau(   6) = (  0.3753741  0.3710792  0.1421455  )
         7           Ag  tau(   7) = (  0.1713498  0.1603092  0.1017503  )
         8           Ag  tau(   8) = (  0.2598156  0.2557977  0.2093519  )
         9           Ag  tau(   9) = (  0.2195484  0.4273174  0.2203687  )
        10           Bi  tau(  10) = (  0.3601669  0.3641017  0.3313630  )
        11           Ag  tau(  11) = (  0.0909362  0.2985977  0.1960131  )
        12           Ag  tau(  12) = (  0.2144206  0.3363141  0.0610748  )
        13           Ag  tau(  13) = (  0.3070306  0.0876049  0.2056120  )

     number of k points=     1  Fermi-Dirac smearing, width (Ry)=  0.0007
                       cart. coord. in units 2pi/alat
        k(    1) = (   0.0000000   0.0000000   0.0000000), wk =   1.0000000

                       cryst. coord.
        k(    1) = (   0.0000000   0.0000000   0.0000000), wk =   1.0000000

     Dense  grid:  1304924 G-vectors     FFT dimensions: ( 180, 180, 180)

     Dynamical RAM for                 wfc:       9.23 MB

     Dynamical RAM for     wfc (w. buffer):      27.69 MB

     Dynamical RAM for           str. fact:       1.66 MB

     Dynamical RAM for           local pot:       0.00 MB

     Dynamical RAM for          nlocal pot:      24.27 MB

     Dynamical RAM for                qrad:      13.69 MB

     Dynamical RAM for          rho,v,vnew:      16.84 MB

     Dynamical RAM for               rhoin:       5.61 MB

     Dynamical RAM for            rho*nmix:      26.55 MB

     Dynamical RAM for           G-vectors:       3.53 MB

     Dynamical RAM for          h,s,v(r/c):       0.18 MB

     Dynamical RAM for          <psi|beta>:       0.16 MB

     Dynamical RAM for                 psi:      36.92 MB

     Dynamical RAM for                hpsi:      36.92 MB

     Dynamical RAM for                spsi:      36.92 MB

     Dynamical RAM for      wfcinit/wfcrot:      24.58 MB

     Dynamical RAM for           addusdens:     165.10 MB

     Estimated static dynamical RAM per process >     134.19 MB

     Estimated max dynamical RAM per process >     299.29 MB

     Estimated total dynamical RAM >       7.01 GB
     Generating pointlists ...
     new r_m :   0.0697 (alat units)  2.0900 (a.u.) for type    1
     new r_m :   0.0784 (alat units)  2.3506 (a.u.) for type    2

     Check: negative core charge=   -0.000002

     Initial potential from superposition of free atoms

     starting charge  146.99440, renormalised to  147.00000
     Starting wfcs are  117 randomized atomic wfcs
     Checking if some PAW data can be deallocated... 
       PAW data deallocated on    2 nodes for type:  1
       PAW data deallocated on   22 nodes for type:  2

     total cpu time spent up to now is       34.5 secs

     Self-consistent Calculation

     iteration #  1     ecut=    80.00 Ry     beta= 0.70
     Davidson diagonalization with overlap
     ethr =  1.00E-02,  avg # of iterations =  3.5

     total cpu time spent up to now is       95.0 secs

     total energy              =   -5168.34962641 Ry
     Harris-Foulkes estimate   =   -5162.03927743 Ry
     estimated scf accuracy    <       6.70784979 Ry

     total magnetization       =     5.00 Bohr mag/cell
     absolute magnetization    =     5.46 Bohr mag/cell

     iteration #  2     ecut=    80.00 Ry     beta= 0.70
     Davidson diagonalization with overlap
     ethr =  4.56E-03,  avg # of iterations =  1.0

     total cpu time spent up to now is      150.4 secs

     total energy              =   -5169.20138457 Ry
     Harris-Foulkes estimate   =   -5168.56249294 Ry
     estimated scf accuracy    <       0.93716043 Ry

     total magnetization       =     3.00 Bohr mag/cell
     absolute magnetization    =     3.41 Bohr mag/cell

     iteration #  3     ecut=    80.00 Ry     beta= 0.70
     Davidson diagonalization with overlap
     ethr =  6.38E-04,  avg # of iterations =  2.5

     total cpu time spent up to now is      208.1 secs

     total energy              =   -5169.25329529 Ry
     Harris-Foulkes estimate   =   -5169.26483821 Ry
     estimated scf accuracy    <       0.08021273 Ry

     total magnetization       =     2.98 Bohr mag/cell
     absolute magnetization    =     3.08 Bohr mag/cell

     iteration #  4     ecut=    80.00 Ry     beta= 0.70
     Davidson diagonalization with overlap
     ethr =  5.46E-05,  avg # of iterations = 10.0

     total cpu time spent up to now is      286.2 secs

     total energy              =   -5169.26392171 Ry
     Harris-Foulkes estimate   =   -5169.27186243 Ry
     estimated scf accuracy    <       0.03634782 Ry

     total magnetization       =     3.00 Bohr mag/cell
     absolute magnetization    =     3.10 Bohr mag/cell

     iteration #  5     ecut=    80.00 Ry     beta= 0.70
     Davidson diagonalization with overlap
     ethr =  2.47E-05,  avg # of iterations =  3.0

     total cpu time spent up to now is      343.7 secs

     total energy              =   -5169.25855931 Ry
     Harris-Foulkes estimate   =   -5169.26554897 Ry
     estimated scf accuracy    <       0.02008052 Ry

     total magnetization       =     3.00 Bohr mag/cell
     absolute magnetization    =     3.13 Bohr mag/cell

     iteration #  6     ecut=    80.00 Ry     beta= 0.70
     Davidson diagonalization with overlap
     ethr =  1.37E-05,  avg # of iterations =  9.5

     total cpu time spent up to now is      410.5 secs

     total energy              =   -5169.25745080 Ry
     Harris-Foulkes estimate   =   -5169.25971564 Ry
     estimated scf accuracy    <       0.01071343 Ry

     total magnetization       =     3.00 Bohr mag/cell
     absolute magnetization    =     3.16 Bohr mag/cell

     iteration #  7     ecut=    80.00 Ry     beta= 0.70
     Davidson diagonalization with overlap
     ethr =  7.29E-06,  avg # of iterations =  8.0

     total cpu time spent up to now is      474.2 secs

     total energy              =   -5169.25583354 Ry
     Harris-Foulkes estimate   =   -5169.25800467 Ry
     estimated scf accuracy    <       0.00565080 Ry

     total magnetization       =     3.00 Bohr mag/cell
     absolute magnetization    =     3.15 Bohr mag/cell

     iteration #  8     ecut=    80.00 Ry     beta= 0.70
     Davidson diagonalization with overlap
     ethr =  3.84E-06,  avg # of iterations = 11.0

     total cpu time spent up to now is      543.8 secs

     total energy              =   -5169.25767227 Ry
     Harris-Foulkes estimate   =   -5169.25606208 Ry
     estimated scf accuracy    <       0.00347715 Ry

     total magnetization       =     3.00 Bohr mag/cell
     absolute magnetization    =     3.15 Bohr mag/cell

     iteration #  9     ecut=    80.00 Ry     beta= 0.70
     Davidson diagonalization with overlap
     ethr =  2.37E-06,  avg # of iterations =  7.5

     total cpu time spent up to now is      609.8 secs

     total energy              =   -5169.26000935 Ry
     Harris-Foulkes estimate   =   -5169.25782329 Ry
     estimated scf accuracy    <       0.00181719 Ry

     total magnetization       =     3.00 Bohr mag/cell
     absolute magnetization    =     3.14 Bohr mag/cell

     iteration # 10     ecut=    80.00 Ry     beta= 0.70
     Davidson diagonalization with overlap
     ethr =  1.24E-06,  avg # of iterations =  9.5

     total cpu time spent up to now is      677.8 secs

     total energy              =   -5169.26077499 Ry
     Harris-Foulkes estimate   =   -5169.26009689 Ry
     estimated scf accuracy    <       0.00090222 Ry

     total magnetization       =     3.00 Bohr mag/cell
     absolute magnetization    =     3.14 Bohr mag/cell

     iteration # 11     ecut=    80.00 Ry     beta= 0.70
     Davidson diagonalization with overlap
     ethr =  6.14E-07,  avg # of iterations =  8.0

     total cpu time spent up to now is      742.7 secs

     total energy              =   -5169.26125997 Ry
     Harris-Foulkes estimate   =   -5169.26082732 Ry
     estimated scf accuracy    <       0.00052793 Ry

     total magnetization       =     3.00 Bohr mag/cell
     absolute magnetization    =     3.14 Bohr mag/cell

     iteration # 12     ecut=    80.00 Ry     beta= 0.70
     Davidson diagonalization with overlap
     ethr =  3.59E-07,  avg # of iterations =  6.0

     total cpu time spent up to now is      804.0 secs

     total energy              =   -5169.26131574 Ry
     Harris-Foulkes estimate   =   -5169.26128101 Ry
     estimated scf accuracy    <       0.00031881 Ry

     total magnetization       =     3.00 Bohr mag/cell
     absolute magnetization    =     3.14 Bohr mag/cell

     iteration # 13     ecut=    80.00 Ry     beta= 0.70
     Davidson diagonalization with overlap
     ethr =  2.17E-07,  avg # of iterations =  9.5

     total cpu time spent up to now is      870.4 secs

     total energy              =   -5169.26132185 Ry
     Harris-Foulkes estimate   =   -5169.26133528 Ry
     estimated scf accuracy    <       0.00011362 Ry

     total magnetization       =     3.00 Bohr mag/cell
     absolute magnetization    =     3.14 Bohr mag/cell

     iteration # 14     ecut=    80.00 Ry     beta= 0.70
     Davidson diagonalization with overlap
     ethr =  7.73E-08,  avg # of iterations =  3.5

     total cpu time spent up to now is      928.8 secs

     total energy              =   -5169.26152477 Ry
     Harris-Foulkes estimate   =   -5169.26132468 Ry
     estimated scf accuracy    <       0.00005385 Ry

     total magnetization       =     3.00 Bohr mag/cell
     absolute magnetization    =     3.14 Bohr mag/cell

     iteration # 15     ecut=    80.00 Ry     beta= 0.70
     Davidson diagonalization with overlap
     ethr =  3.66E-08,  avg # of iterations =  7.5

     total cpu time spent up to now is      990.7 secs

     total energy              =   -5169.26157906 Ry
     Harris-Foulkes estimate   =   -5169.26152866 Ry
     estimated scf accuracy    <       0.00001629 Ry

     total magnetization       =     3.00 Bohr mag/cell
     absolute magnetization    =     3.14 Bohr mag/cell

     iteration # 16     ecut=    80.00 Ry     beta= 0.70
     Davidson diagonalization with overlap
     ethr =  1.11E-08,  avg # of iterations =  3.0

     total cpu time spent up to now is     1049.5 secs

     total energy              =   -5169.26159544 Ry
     Harris-Foulkes estimate   =   -5169.26157974 Ry
     estimated scf accuracy    <       0.00000882 Ry

     total magnetization       =     3.00 Bohr mag/cell
     absolute magnetization    =     3.14 Bohr mag/cell

     iteration # 17     ecut=    80.00 Ry     beta= 0.70
     Davidson diagonalization with overlap
     ethr =  6.00E-09,  avg # of iterations =  6.5

     total cpu time spent up to now is     1110.1 secs

     total energy              =   -5169.26159791 Ry
     Harris-Foulkes estimate   =   -5169.26159609 Ry
     estimated scf accuracy    <       0.00000299 Ry

     total magnetization       =     3.00 Bohr mag/cell
     absolute magnetization    =     3.14 Bohr mag/cell

     iteration # 18     ecut=    80.00 Ry     beta= 0.70
     Davidson diagonalization with overlap
     ethr =  2.03E-09,  avg # of iterations =  2.0

     total cpu time spent up to now is     1166.7 secs

     total energy              =   -5169.26160000 Ry
     Harris-Foulkes estimate   =   -5169.26159802 Ry
     estimated scf accuracy    <       0.00000109 Ry

     total magnetization       =     3.00 Bohr mag/cell
     absolute magnetization    =     3.14 Bohr mag/cell

     iteration # 19     ecut=    80.00 Ry     beta= 0.70
     Davidson diagonalization with overlap
     ethr =  7.43E-10,  avg # of iterations =  3.0

     total cpu time spent up to now is     1224.7 secs

     total energy              =   -5169.26160041 Ry
     Harris-Foulkes estimate   =   -5169.26160011 Ry
     estimated scf accuracy    <       0.00000028 Ry

     total magnetization       =     3.00 Bohr mag/cell
     absolute magnetization    =     3.14 Bohr mag/cell

     iteration # 20     ecut=    80.00 Ry     beta= 0.70
     Davidson diagonalization with overlap
     ethr =  1.92E-10,  avg # of iterations =  3.0

     total cpu time spent up to now is     1282.9 secs

     total energy              =   -5169.26160078 Ry
     Harris-Foulkes estimate   =   -5169.26160043 Ry
     estimated scf accuracy    <       0.00000010 Ry

     total magnetization       =     3.00 Bohr mag/cell
     absolute magnetization    =     3.14 Bohr mag/cell

     iteration # 21     ecut=    80.00 Ry     beta= 0.70
     Davidson diagonalization with overlap
     ethr =  6.87E-11,  avg # of iterations =  3.5

     total cpu time spent up to now is     1341.5 secs

     total energy              =   -5169.26160094 Ry
     Harris-Foulkes estimate   =   -5169.26160079 Ry
     estimated scf accuracy    <       0.00000003 Ry

     total magnetization       =     3.00 Bohr mag/cell
     absolute magnetization    =     3.14 Bohr mag/cell

     iteration # 22     ecut=    80.00 Ry     beta= 0.70
     Davidson diagonalization with overlap
     ethr =  2.16E-11,  avg # of iterations =  2.5

     total cpu time spent up to now is     1399.6 secs

     total energy              =   -5169.26160104 Ry
     Harris-Foulkes estimate   =   -5169.26160095 Ry
     estimated scf accuracy    <       0.00000001 Ry

     total magnetization       =     3.00 Bohr mag/cell
     absolute magnetization    =     3.14 Bohr mag/cell

     iteration # 23     ecut=    80.00 Ry     beta= 0.70
     Davidson diagonalization with overlap
     ethr =  9.13E-12,  avg # of iterations =  4.0
 
     Magnetic moment per site:
     atom:    1    charge:    9.2279    magn:    0.0512    constr:    0.0000
     atom:    2    charge:    9.2281    magn:    0.0703    constr:    0.0000
     atom:    3    charge:    9.2282    magn:    0.0703    constr:    0.0000
     atom:    4    charge:    9.2280    magn:    0.0702    constr:    0.0000
     atom:    5    charge:    9.2278    magn:    0.0511    constr:    0.0000
     atom:    6    charge:    9.2282    magn:    0.0703    constr:    0.0000
     atom:    7    charge:    9.2308    magn:    0.0279    constr:    0.0000
     atom:    8    charge:    9.3243    magn:    0.1107    constr:    0.0000
     atom:    9    charge:    9.2283    magn:    0.0703    constr:    0.0000
     atom:   10    charge:   12.6160    magn:    0.1155    constr:    0.0000
     atom:   11    charge:    9.2277    magn:    0.0511    constr:    0.0000
     atom:   12    charge:    9.2279    magn:    0.0512    constr:    0.0000
     atom:   13    charge:    9.2276    magn:    0.0511    constr:    0.0000

     total cpu time spent up to now is     1454.9 secs

     End of self-consistent calculation

 ------ SPIN UP ------------


          k = 0.0000 0.0000 0.0000 (163015 PWs)   bands (ev):

   -25.6073 -25.5842 -25.5842 -25.4944 -25.4943 -13.7478  -9.1702  -8.8620
    -8.8620  -8.8195  -8.8193  -8.7454  -7.9417  -7.9415  -7.8265  -7.8263
    -7.8030  -7.7802  -7.6979  -7.6979  -7.6832  -7.6831  -7.6298  -7.6297
    -7.5594  -7.5592  -7.4570  -7.4568  -7.4349  -7.4123  -7.3279  -7.3278
    -7.2939  -7.2936  -7.0258  -7.0135  -7.0071  -7.0068  -6.9938  -6.9934
    -6.9652  -6.9649  -6.7789  -6.7421  -6.7420  -6.5971  -6.5970  -6.4755
    -6.4753  -6.4577  -6.4576  -6.3801  -6.3411  -6.3411  -6.3367  -6.3364
    -6.3033  -6.2996  -6.2996  -6.2203  -6.2093  -6.2092  -6.1790  -6.1789
    -6.1379  -6.1377  -6.0686  -5.5329  -5.5327  -4.8939  -3.9117  -3.9116
    -3.1903  -3.1898  -3.1072  -2.0927  -1.8142  -1.8139  -1.5634  -1.1166
    -1.1151  -0.7831  -0.7809  -0.7166  -0.7157   0.1761   0.3745   0.3944
     0.3955

     occupation numbers 
     1.0000   1.0000   1.0000   1.0000   1.0000   1.0000   1.0000   1.0000
     1.0000   1.0000   1.0000   1.0000   1.0000   1.0000   1.0000   1.0000
     1.0000   1.0000   1.0000   1.0000   1.0000   1.0000   1.0000   1.0000
     1.0000   1.0000   1.0000   1.0000   1.0000   1.0000   1.0000   1.0000
     1.0000   1.0000   1.0000   1.0000   1.0000   1.0000   1.0000   1.0000
     1.0000   1.0000   1.0000   1.0000   1.0000   1.0000   1.0000   1.0000
     1.0000   1.0000   1.0000   1.0000   1.0000   1.0000   1.0000   1.0000
     1.0000   1.0000   1.0000   1.0000   1.0000   1.0000   1.0000   1.0000
     1.0000   1.0000   1.0000   1.0000   1.0000   1.0000   1.0000   1.0000
     1.0000   1.0000   1.0000   0.0000   0.0000   0.0000   0.0000   0.0000
     0.0000   0.0000   0.0000   0.0000   0.0000   0.0000   0.0000   0.0000
     0.0000

 ------ SPIN DOWN ----------


          k = 0.0000 0.0000 0.0000 (163015 PWs)   bands (ev):

   -25.5475 -25.5417 -25.5416 -25.4906 -25.4906 -13.5961  -9.1179  -8.7880
    -8.7879  -8.7764  -8.7763  -8.6767  -7.8843  -7.8840  -7.7672  -7.7671
    -7.7126  -7.6809  -7.6444  -7.6444  -7.6341  -7.6340  -7.5572  -7.5571
    -7.4964  -7.4962  -7.3884  -7.3699  -7.3697  -7.2915  -7.2638  -7.2637
    -7.2229  -7.2225  -6.9753  -6.9591  -6.9588  -6.9583  -6.9430  -6.9426
    -6.9189  -6.9186  -6.7070  -6.6792  -6.6791  -6.5314  -6.5313  -6.4249
    -6.4247  -6.4107  -6.4107  -6.3083  -6.2954  -6.2953  -6.2917  -6.2915
    -6.2513  -6.2512  -6.2431  -6.1647  -6.1599  -6.1599  -6.1205  -6.1203
    -6.0753  -6.0751  -6.0361  -5.3661  -5.3659  -4.7755  -3.7842  -3.7842
    -2.8643  -2.8639  -2.7652  -1.9515  -1.6253  -1.6251  -1.3350  -0.8815
    -0.8803  -0.5099  -0.5097  -0.4634  -0.4603   0.3180   0.4607   0.6051
     0.6119

     occupation numbers 
     1.0000   1.0000   1.0000   1.0000   1.0000   1.0000   1.0000   1.0000
     1.0000   1.0000   1.0000   1.0000   1.0000   1.0000   1.0000   1.0000
     1.0000   1.0000   1.0000   1.0000   1.0000   1.0000   1.0000   1.0000
     1.0000   1.0000   1.0000   1.0000   1.0000   1.0000   1.0000   1.0000
     1.0000   1.0000   1.0000   1.0000   1.0000   1.0000   1.0000   1.0000
     1.0000   1.0000   1.0000   1.0000   1.0000   1.0000   1.0000   1.0000
     1.0000   1.0000   1.0000   1.0000   1.0000   1.0000   1.0000   1.0000
     1.0000   1.0000   1.0000   1.0000   1.0000   1.0000   1.0000   1.0000
     1.0000   1.0000   1.0000   1.0000   1.0000   1.0000   1.0000   1.0000
     0.0000   0.0000   0.0000   0.0000   0.0000   0.0000   0.0000   0.0000
     0.0000   0.0000   0.0000   0.0000   0.0000   0.0000   0.0000   0.0000
     0.0000

     the Fermi energy is    -2.9890 ev

!    total energy              =   -5169.26160106 Ry
     Harris-Foulkes estimate   =   -5169.26160104 Ry
     estimated scf accuracy    <          6.2E-09 Ry

     total all-electron energy =   -170648.312263 Ry

     The total energy is the sum of the following terms:

     one-electron contribution =   -3777.05403640 Ry
     hartree contribution      =    1984.33457709 Ry
     xc contribution           =    -459.87935380 Ry
     ewald contribution        =     989.86276629 Ry
     one-center paw contrib.   =   -3906.52555416 Ry
      -> PAW hartree energy AE =      66.87770048 Ry
      -> PAW hartree energy PS =     -66.73019559 Ry
      -> PAW xc energy AE      =    -297.86706214 Ry
      -> PAW xc energy PS      =      35.22458601 Ry
      -> total E_H with PAW    =    1984.48208198 Ry
      -> total E_XC with PAW   =    -722.52182994 Ry
     smearing contrib. (-TS)   =      -0.00000008 Ry

     total magnetization       =     3.00 Bohr mag/cell
     absolute magnetization    =     3.14 Bohr mag/cell

     convergence has been achieved in  23 iterations

     Writing output data file ./tmp/ag12Bil.save/
 
     init_run     :     29.46s CPU     30.35s WALL (       1 calls)
     electrons    :   1389.23s CPU   1420.67s WALL (       1 calls)

     Called by init_run:
     wfcinit      :     18.02s CPU     18.25s WALL (       1 calls)
     wfcinit:atom :      0.11s CPU      0.14s WALL (       2 calls)
     wfcinit:wfcr :     17.65s CPU     17.80s WALL (       2 calls)
     potinit      :      3.99s CPU      4.18s WALL (       1 calls)
     hinit0       :      1.78s CPU      1.82s WALL (       1 calls)

     Called by electrons:
     c_bands      :    784.62s CPU    794.63s WALL (      23 calls)
     sum_band     :    363.11s CPU    373.18s WALL (      23 calls)
     v_of_rho     :     47.82s CPU     49.14s WALL (      24 calls)
     v_h          :      3.24s CPU      3.26s WALL (      24 calls)
     v_xc         :     44.58s CPU     45.88s WALL (      24 calls)
     newd         :     81.88s CPU     90.15s WALL (      24 calls)
     PAW_pot      :     30.60s CPU     30.95s WALL (      24 calls)
     mix_rho      :     86.09s CPU     87.75s WALL (      23 calls)

     Called by c_bands:
     init_us_2    :      4.24s CPU      4.32s WALL (      94 calls)
     regterg      :    763.37s CPU    773.21s WALL (      46 calls)

     Called by sum_band:
     sum_band:bec :      0.03s CPU      0.03s WALL (      46 calls)
     addusdens    :    205.49s CPU    214.88s WALL (      23 calls)

     Called by *egterg:
     h_psi        :    630.48s CPU    633.88s WALL (     303 calls)
     s_psi        :     41.14s CPU     41.23s WALL (     303 calls)
     g_psi        :      1.14s CPU      1.15s WALL (     255 calls)
     rdiaghg      :      8.09s CPU      8.57s WALL (     301 calls)
     regterg:over :     35.75s CPU     35.87s WALL (     255 calls)
     regterg:upda :     33.12s CPU     33.71s WALL (     255 calls)
     regterg:last :      9.31s CPU      9.33s WALL (      46 calls)
     rdiaghg:chol :      0.28s CPU      0.29s WALL (     301 calls)
     rdiaghg:inve :      0.22s CPU      0.23s WALL (     301 calls)
     rdiaghg:para :      0.73s CPU      0.74s WALL (     602 calls)

     Called by h_psi:
     h_psi:calbec :     26.95s CPU     27.03s WALL (     303 calls)
     vloc_psi     :    559.31s CPU    562.50s WALL (     303 calls)
     add_vuspsi   :     41.54s CPU     41.66s WALL (     303 calls)

     General routines
     calbec       :     35.22s CPU     35.33s WALL (     349 calls)
     fft          :     39.09s CPU     39.36s WALL (     405 calls)
     ffts         :     58.06s CPU     58.32s WALL (     522 calls)
     fftw         :    547.63s CPU    550.55s WALL (   11718 calls)
 
     Parallel routines
     fft_scatt_xy :    108.17s CPU    108.91s WALL (   12645 calls)
     fft_scatt_yz :    161.18s CPU    161.95s WALL (   12645 calls)

     PAW routines
     PAW_pot      :     30.60s CPU     30.95s WALL (      24 calls)
 
     PWSCF        :  23m43.27s CPU  24m16.82s WALL

 
   This run was terminated on:   1:34:56   4Jan2021            

=------------------------------------------------------------------------------=
   JOB DONE.
=------------------------------------------------------------------------------=
