
     Program PWSCF v.6.5 starts on  4Jan2021 at  5:21:59 

     This program is part of the open-source Quantum ESPRESSO suite
     for quantum simulation of materials; please cite
         "P. Giannozzi et al., J. Phys.:Condens. Matter 21 395502 (2009);
         "P. Giannozzi et al., J. Phys.:Condens. Matter 29 465901 (2017);
          URL http://www.quantum-espresso.org", 
     in publications or presentations arising from this work. More details at
     http://www.quantum-espresso.org/quote

     Parallel version (MPI & OpenMP), running on      24 processor cores
     Number of MPI processes:                24
     Threads/MPI process:                     1

     MPI processes distributed on     1 nodes
     R & G space division:  proc/nbgrp/npool/nimage =      24
     Waiting for input...
     Reading input from standard input

     Current dimensions of program PWSCF are:
     Max number of different atomic species (ntypx) = 10
     Max number of k-points (npk) =  40000
     Max angular momentum in pseudopotentials (lmaxx) =  3
               file Ag.pbe-dn-kjpaw_psl.0.1.UPF: wavefunction(s)  5S 5P 4D renormalized
               file Bi.pbe-dn-kjpaw_psl.1.0.0.UPF: wavefunction(s)  6P 5D renormalized

     gamma-point specific algorithms are used

     Subspace diagonalization in iterative solution of the eigenvalue problem:
     one sub-group per band group will be used
     scalapack distributed-memory algorithm (size of sub-group:  4*  4 procs)

 
     Parallelization info
     --------------------
     sticks:   dense  smooth     PW     G-vecs:    dense   smooth      PW
     Min        2862     953    237               565077   108738   13581
     Max        2864     956    240               565096   108748   13592
     Sum       68725   22901   5721             13562163  2609847  326029
 


     bravais-lattice index     =            1
     lattice parameter (alat)  =      30.0000  a.u.
     unit-cell volume          =   27000.0000 (a.u.)^3
     number of atoms/cell      =           13
     number of atomic types    =            2
     number of electrons       =       147.00
     number of Kohn-Sham states=           89
     kinetic-energy cutoff     =      80.0000  Ry
     charge density cutoff     =     960.0000  Ry
     convergence threshold     =      1.0E-08
     mixing beta               =       0.7000
     number of iterations used =            8  local-TF  mixing
     Exchange-correlation= SLA PW PBX PBC
                           (   1   4   3   4   0   0   0)

     celldm(1)=  30.000000  celldm(2)=   0.000000  celldm(3)=   0.000000
     celldm(4)=   0.000000  celldm(5)=   0.000000  celldm(6)=   0.000000

     crystal axes: (cart. coord. in units of alat)
               a(1) = (   1.000000   0.000000   0.000000 )  
               a(2) = (   0.000000   1.000000   0.000000 )  
               a(3) = (   0.000000   0.000000   1.000000 )  

     reciprocal axes: (cart. coord. in units 2 pi/alat)
               b(1) = (  1.000000  0.000000  0.000000 )  
               b(2) = (  0.000000  1.000000  0.000000 )  
               b(3) = (  0.000000  0.000000  1.000000 )  


     PseudoPot. # 1 for Ag read from file:
     ../../pseudo/Ag.pbe-dn-kjpaw_psl.0.1.UPF
     MD5 check sum: 2edc915f30f03476250949c796a6a376
     Pseudo is Projector augmented-wave + core cor, Zval = 11.0
     Generated using "atomic" code by A. Dal Corso v.5.0.2 svn rev. 9415
     Shape of augmentation charge: PSQ
     Using radial grid of 1237 points,  6 beta functions with: 
                l(1) =   0
                l(2) =   0
                l(3) =   1
                l(4) =   1
                l(5) =   2
                l(6) =   2
     Q(r) pseudized with 0 coefficients 


     PseudoPot. # 2 for Bi read from file:
     ../../pseudo/Bi.pbe-dn-kjpaw_psl.1.0.0.UPF
     MD5 check sum: 266ded784ae3bc462508ed03f0f37963
     Pseudo is Projector augmented-wave + core cor, Zval = 15.0
     Generated using "atomic" code by A. Dal Corso v.6.2.2
     Shape of augmentation charge: PSQ
     Using radial grid of 1283 points,  6 beta functions with: 
                l(1) =   0
                l(2) =   0
                l(3) =   1
                l(4) =   1
                l(5) =   2
                l(6) =   2
     Q(r) pseudized with 0 coefficients 


     atomic species   valence    mass     pseudopotential
        Ag            11.00   107.87000     Ag( 1.00)
        Bi            15.00   208.98000     Bi( 1.00)

     Starting magnetic structure 
     atomic species   magnetization
        Ag           0.700
        Bi           0.000

     No symmetry found


                                    s                        frac. trans.

      isym =  1     identity                                     

 cryst.   s( 1) = (     1          0          0      )
                  (     0          1          0      )
                  (     0          0          1      )

 cart.    s( 1) = (  1.0000000  0.0000000  0.0000000 )
                  (  0.0000000  1.0000000  0.0000000 )
                  (  0.0000000  0.0000000  1.0000000 )


     point group C_1 (1)    
     there are  1 classes
     the character table:

       E    
A      1.00

     the symmetry operations in each class and the name of the first element:

     E        1
          identity                                               

   Cartesian axes

     site n.     atom                  positions (alat units)
         1           Ag  tau(   1) = (   0.1482164   0.1449496   0.2853705  )
         2           Ag  tau(   2) = (   0.1794160   0.3113257   0.3563652  )
         3           Ag  tau(   3) = (   0.4315329   0.2203186   0.2297755  )
         4           Ag  tau(   4) = (   0.3104401   0.1833726   0.3621717  )
         5           Ag  tau(   5) = (   0.3479443   0.2058768   0.0669794  )
         6           Ag  tau(   6) = (   0.3753741   0.3710792   0.1421455  )
         7           Ag  tau(   7) = (   0.1713498   0.1603092   0.1017503  )
         8           Ag  tau(   8) = (   0.2598156   0.2557977   0.2093519  )
         9           Ag  tau(   9) = (   0.2195484   0.4273174   0.2203687  )
        10           Bi  tau(  10) = (   0.3601669   0.3641017   0.3313630  )
        11           Ag  tau(  11) = (   0.0909362   0.2985977   0.1960131  )
        12           Ag  tau(  12) = (   0.2144206   0.3363141   0.0610748  )
        13           Ag  tau(  13) = (   0.3070306   0.0876049   0.2056120  )

   Crystallographic axes

     site n.     atom                  positions (cryst. coord.)
         1           Ag  tau(   1) = (  0.1482164  0.1449496  0.2853705  )
         2           Ag  tau(   2) = (  0.1794160  0.3113257  0.3563652  )
         3           Ag  tau(   3) = (  0.4315329  0.2203186  0.2297755  )
         4           Ag  tau(   4) = (  0.3104401  0.1833726  0.3621717  )
         5           Ag  tau(   5) = (  0.3479443  0.2058768  0.0669794  )
         6           Ag  tau(   6) = (  0.3753741  0.3710792  0.1421455  )
         7           Ag  tau(   7) = (  0.1713498  0.1603092  0.1017503  )
         8           Ag  tau(   8) = (  0.2598156  0.2557977  0.2093519  )
         9           Ag  tau(   9) = (  0.2195484  0.4273174  0.2203687  )
        10           Bi  tau(  10) = (  0.3601669  0.3641017  0.3313630  )
        11           Ag  tau(  11) = (  0.0909362  0.2985977  0.1960131  )
        12           Ag  tau(  12) = (  0.2144206  0.3363141  0.0610748  )
        13           Ag  tau(  13) = (  0.3070306  0.0876049  0.2056120  )

     number of k points=     1  Fermi-Dirac smearing, width (Ry)=  0.0007
                       cart. coord. in units 2pi/alat
        k(    1) = (   0.0000000   0.0000000   0.0000000), wk =   1.0000000

                       cryst. coord.
        k(    1) = (   0.0000000   0.0000000   0.0000000), wk =   1.0000000

     Dense  grid:  6781082 G-vectors     FFT dimensions: ( 300, 300, 300)

     Smooth grid:  1304924 G-vectors     FFT dimensions: ( 180, 180, 180)

     Dynamical RAM for                 wfc:       9.23 MB

     Dynamical RAM for     wfc (w. buffer):      27.69 MB

     Dynamical RAM for           str. fact:       8.62 MB

     Dynamical RAM for           local pot:       0.00 MB

     Dynamical RAM for          nlocal pot:      24.27 MB

     Dynamical RAM for                qrad:      23.71 MB

     Dynamical RAM for          rho,v,vnew:      79.43 MB

     Dynamical RAM for               rhoin:      26.48 MB

     Dynamical RAM for            rho*nmix:     137.96 MB

     Dynamical RAM for           G-vectors:      16.58 MB

     Dynamical RAM for          h,s,v(r/c):       0.18 MB

     Dynamical RAM for          <psi|beta>:       0.16 MB

     Dynamical RAM for                 psi:      36.92 MB

     Dynamical RAM for                hpsi:      36.92 MB

     Dynamical RAM for                spsi:      36.92 MB

     Dynamical RAM for      wfcinit/wfcrot:      24.58 MB

     Dynamical RAM for           addusdens:     857.94 MB

     Estimated static dynamical RAM per process >     411.22 MB

     Estimated max dynamical RAM per process >       1.24 GB

     Estimated total dynamical RAM >      29.75 GB
     Generating pointlists ...
     new r_m :   0.0697 (alat units)  2.0900 (a.u.) for type    1
     new r_m :   0.0784 (alat units)  2.3506 (a.u.) for type    2

     Initial potential from superposition of free atoms

     starting charge  146.99440, renormalised to  147.00000
     Starting wfcs are  117 randomized atomic wfcs
     Checking if some PAW data can be deallocated... 
       PAW data deallocated on    2 nodes for type:  1
       PAW data deallocated on   22 nodes for type:  2

     total cpu time spent up to now is       78.3 secs

     Self-consistent Calculation

     iteration #  1     ecut=    80.00 Ry     beta= 0.70
     Davidson diagonalization with overlap
     ethr =  1.00E-02,  avg # of iterations =  3.5

     total cpu time spent up to now is      203.2 secs

     total energy              =   -5168.34927191 Ry
     Harris-Foulkes estimate   =   -5162.03907089 Ry
     estimated scf accuracy    <       6.70923460 Ry

     total magnetization       =     5.00 Bohr mag/cell
     absolute magnetization    =     5.46 Bohr mag/cell

     iteration #  2     ecut=    80.00 Ry     beta= 0.70
     Davidson diagonalization with overlap
     ethr =  4.56E-03,  avg # of iterations =  1.0

     total cpu time spent up to now is      324.0 secs

     total energy              =   -5169.20101405 Ry
     Harris-Foulkes estimate   =   -5168.56211002 Ry
     estimated scf accuracy    <       0.93729772 Ry

     total magnetization       =     3.00 Bohr mag/cell
     absolute magnetization    =     3.41 Bohr mag/cell

     iteration #  3     ecut=    80.00 Ry     beta= 0.70
     Davidson diagonalization with overlap
     ethr =  6.38E-04,  avg # of iterations =  2.5

     total cpu time spent up to now is      448.4 secs

     total energy              =   -5169.25342935 Ry
     Harris-Foulkes estimate   =   -5169.26441628 Ry
     estimated scf accuracy    <       0.08022675 Ry

     total magnetization       =     2.98 Bohr mag/cell
     absolute magnetization    =     3.08 Bohr mag/cell

     iteration #  4     ecut=    80.00 Ry     beta= 0.70
     Davidson diagonalization with overlap
     ethr =  5.46E-05,  avg # of iterations = 10.0

     total cpu time spent up to now is      596.2 secs

     total energy              =   -5169.26435234 Ry
     Harris-Foulkes estimate   =   -5169.27191935 Ry
     estimated scf accuracy    <       0.03644773 Ry

     total magnetization       =     3.00 Bohr mag/cell
     absolute magnetization    =     3.10 Bohr mag/cell

     iteration #  5     ecut=    80.00 Ry     beta= 0.70
     Davidson diagonalization with overlap
     ethr =  2.48E-05,  avg # of iterations =  2.0

     total cpu time spent up to now is      721.4 secs

     total energy              =   -5169.25898389 Ry
     Harris-Foulkes estimate   =   -5169.26595581 Ry
     estimated scf accuracy    <       0.02025763 Ry

     total magnetization       =     3.00 Bohr mag/cell
     absolute magnetization    =     3.13 Bohr mag/cell

     iteration #  6     ecut=    80.00 Ry     beta= 0.70
     Davidson diagonalization with overlap
     ethr =  1.38E-05,  avg # of iterations =  9.5

     total cpu time spent up to now is      855.9 secs

     total energy              =   -5169.25738415 Ry
     Harris-Foulkes estimate   =   -5169.26013676 Ry
     estimated scf accuracy    <       0.01085373 Ry

     total magnetization       =     3.00 Bohr mag/cell
     absolute magnetization    =     3.16 Bohr mag/cell

     iteration #  7     ecut=    80.00 Ry     beta= 0.70
     Davidson diagonalization with overlap
     ethr =  7.38E-06,  avg # of iterations =  7.5

     total cpu time spent up to now is      987.6 secs

     total energy              =   -5169.25562017 Ry
     Harris-Foulkes estimate   =   -5169.25796590 Ry
     estimated scf accuracy    <       0.00559804 Ry

     total magnetization       =     3.00 Bohr mag/cell
     absolute magnetization    =     3.15 Bohr mag/cell

     iteration #  8     ecut=    80.00 Ry     beta= 0.70
     Davidson diagonalization with overlap
     ethr =  3.81E-06,  avg # of iterations = 11.5

     total cpu time spent up to now is     1125.6 secs

     total energy              =   -5169.25758236 Ry
     Harris-Foulkes estimate   =   -5169.25585468 Ry
     estimated scf accuracy    <       0.00348426 Ry

     total magnetization       =     3.00 Bohr mag/cell
     absolute magnetization    =     3.15 Bohr mag/cell

     iteration #  9     ecut=    80.00 Ry     beta= 0.70
     Davidson diagonalization with overlap
     ethr =  2.37E-06,  avg # of iterations =  6.5

     total cpu time spent up to now is     1257.7 secs

     total energy              =   -5169.25996173 Ry
     Harris-Foulkes estimate   =   -5169.25773459 Ry
     estimated scf accuracy    <       0.00180980 Ry

     total magnetization       =     3.00 Bohr mag/cell
     absolute magnetization    =     3.14 Bohr mag/cell

     iteration # 10     ecut=    80.00 Ry     beta= 0.70
     Davidson diagonalization with overlap
     ethr =  1.23E-06,  avg # of iterations =  9.5

     total cpu time spent up to now is     1392.2 secs

     total energy              =   -5169.26056495 Ry
     Harris-Foulkes estimate   =   -5169.26004096 Ry
     estimated scf accuracy    <       0.00089676 Ry

     total magnetization       =     3.00 Bohr mag/cell
     absolute magnetization    =     3.14 Bohr mag/cell

     iteration # 11     ecut=    80.00 Ry     beta= 0.70
     Davidson diagonalization with overlap
     ethr =  6.10E-07,  avg # of iterations = 10.0

     total cpu time spent up to now is     1522.2 secs

     total energy              =   -5169.26096108 Ry
     Harris-Foulkes estimate   =   -5169.26061253 Ry
     estimated scf accuracy    <       0.00051959 Ry

     total magnetization       =     3.00 Bohr mag/cell
     absolute magnetization    =     3.14 Bohr mag/cell

     iteration # 12     ecut=    80.00 Ry     beta= 0.70
     Davidson diagonalization with overlap
     ethr =  3.53E-07,  avg # of iterations =  5.5

     total cpu time spent up to now is     1649.4 secs

     total energy              =   -5169.26095553 Ry
     Harris-Foulkes estimate   =   -5169.26098093 Ry
     estimated scf accuracy    <       0.00031328 Ry

     total magnetization       =     3.00 Bohr mag/cell
     absolute magnetization    =     3.14 Bohr mag/cell

     iteration # 13     ecut=    80.00 Ry     beta= 0.70
     Davidson diagonalization with overlap
     ethr =  2.13E-07,  avg # of iterations =  9.0

     total cpu time spent up to now is     1790.0 secs

     total energy              =   -5169.26092020 Ry
     Harris-Foulkes estimate   =   -5169.26097588 Ry
     estimated scf accuracy    <       0.00011299 Ry

     total magnetization       =     3.00 Bohr mag/cell
     absolute magnetization    =     3.14 Bohr mag/cell

     iteration # 14     ecut=    80.00 Ry     beta= 0.70
     Davidson diagonalization with overlap
     ethr =  7.69E-08,  avg # of iterations =  6.5

     total cpu time spent up to now is     1918.0 secs

     total energy              =   -5169.26103398 Ry
     Harris-Foulkes estimate   =   -5169.26092337 Ry
     estimated scf accuracy    <       0.00005274 Ry

     total magnetization       =     3.00 Bohr mag/cell
     absolute magnetization    =     3.14 Bohr mag/cell

     iteration # 15     ecut=    80.00 Ry     beta= 0.70
     Davidson diagonalization with overlap
     ethr =  3.59E-08,  avg # of iterations =  8.5

     total cpu time spent up to now is     2050.1 secs

     total energy              =   -5169.26108711 Ry
     Harris-Foulkes estimate   =   -5169.26103804 Ry
     estimated scf accuracy    <       0.00001596 Ry

     total magnetization       =     3.00 Bohr mag/cell
     absolute magnetization    =     3.14 Bohr mag/cell

     iteration # 16     ecut=    80.00 Ry     beta= 0.70
     Davidson diagonalization with overlap
     ethr =  1.09E-08,  avg # of iterations =  5.5

     total cpu time spent up to now is     2180.4 secs

     total energy              =   -5169.26110668 Ry
     Harris-Foulkes estimate   =   -5169.26108795 Ry
     estimated scf accuracy    <       0.00000880 Ry

     total magnetization       =     3.00 Bohr mag/cell
     absolute magnetization    =     3.14 Bohr mag/cell

     iteration # 17     ecut=    80.00 Ry     beta= 0.70
     Davidson diagonalization with overlap
     ethr =  5.98E-09,  avg # of iterations =  8.5

     total cpu time spent up to now is     2311.1 secs

     total energy              =   -5169.26111174 Ry
     Harris-Foulkes estimate   =   -5169.26110767 Ry
     estimated scf accuracy    <       0.00000250 Ry

     total magnetization       =     3.00 Bohr mag/cell
     absolute magnetization    =     3.14 Bohr mag/cell

     iteration # 18     ecut=    80.00 Ry     beta= 0.70
     Davidson diagonalization with overlap
     ethr =  1.70E-09,  avg # of iterations =  2.5

     total cpu time spent up to now is     2435.9 secs

     total energy              =   -5169.26111963 Ry
     Harris-Foulkes estimate   =   -5169.26111187 Ry
     estimated scf accuracy    <       0.00000083 Ry

     total magnetization       =     3.00 Bohr mag/cell
     absolute magnetization    =     3.14 Bohr mag/cell

     iteration # 19     ecut=    80.00 Ry     beta= 0.70
     Davidson diagonalization with overlap
     ethr =  5.68E-10,  avg # of iterations =  4.0

     total cpu time spent up to now is     2564.0 secs

     total energy              =   -5169.26112131 Ry
     Harris-Foulkes estimate   =   -5169.26111975 Ry
     estimated scf accuracy    <       0.00000026 Ry

     total magnetization       =     3.00 Bohr mag/cell
     absolute magnetization    =     3.14 Bohr mag/cell

     iteration # 20     ecut=    80.00 Ry     beta= 0.70
     Davidson diagonalization with overlap
     ethr =  1.78E-10,  avg # of iterations =  3.5

     total cpu time spent up to now is     2691.3 secs

     total energy              =   -5169.26112179 Ry
     Harris-Foulkes estimate   =   -5169.26112133 Ry
     estimated scf accuracy    <       0.00000010 Ry

     total magnetization       =     3.00 Bohr mag/cell
     absolute magnetization    =     3.14 Bohr mag/cell

     iteration # 21     ecut=    80.00 Ry     beta= 0.70
     Davidson diagonalization with overlap
     ethr =  6.85E-11,  avg # of iterations =  4.5

     total cpu time spent up to now is     2817.8 secs

     total energy              =   -5169.26112193 Ry
     Harris-Foulkes estimate   =   -5169.26112180 Ry
     estimated scf accuracy    <       0.00000003 Ry

     total magnetization       =     3.00 Bohr mag/cell
     absolute magnetization    =     3.14 Bohr mag/cell

     iteration # 22     ecut=    80.00 Ry     beta= 0.70
     Davidson diagonalization with overlap
     ethr =  1.89E-11,  avg # of iterations =  3.5

     total cpu time spent up to now is     2943.7 secs

     total energy              =   -5169.26112199 Ry
     Harris-Foulkes estimate   =   -5169.26112193 Ry
     estimated scf accuracy    <       0.00000001 Ry

     total magnetization       =     3.00 Bohr mag/cell
     absolute magnetization    =     3.14 Bohr mag/cell

     iteration # 23     ecut=    80.00 Ry     beta= 0.70
     Davidson diagonalization with overlap
     ethr =  8.87E-12,  avg # of iterations =  4.0
 
     Magnetic moment per site:
     atom:    1    charge:    9.2279    magn:    0.0512    constr:    0.0000
     atom:    2    charge:    9.2282    magn:    0.0703    constr:    0.0000
     atom:    3    charge:    9.2282    magn:    0.0703    constr:    0.0000
     atom:    4    charge:    9.2282    magn:    0.0703    constr:    0.0000
     atom:    5    charge:    9.2278    magn:    0.0511    constr:    0.0000
     atom:    6    charge:    9.2283    magn:    0.0703    constr:    0.0000
     atom:    7    charge:    9.2309    magn:    0.0280    constr:    0.0000
     atom:    8    charge:    9.3243    magn:    0.1107    constr:    0.0000
     atom:    9    charge:    9.2282    magn:    0.0703    constr:    0.0000
     atom:   10    charge:   12.6161    magn:    0.1156    constr:    0.0000
     atom:   11    charge:    9.2278    magn:    0.0511    constr:    0.0000
     atom:   12    charge:    9.2278    magn:    0.0512    constr:    0.0000
     atom:   13    charge:    9.2278    magn:    0.0511    constr:    0.0000

     total cpu time spent up to now is     3066.0 secs

     End of self-consistent calculation

 ------ SPIN UP ------------


          k = 0.0000 0.0000 0.0000 (163015 PWs)   bands (ev):

   -25.6039 -25.5807 -25.5806 -25.4909 -25.4909 -13.7446  -9.1672  -8.8590
    -8.8589  -8.8164  -8.8162  -8.7423  -7.9388  -7.9385  -7.8235  -7.8234
    -7.8001  -7.7774  -7.6950  -7.6950  -7.6802  -7.6801  -7.6268  -7.6267
    -7.5564  -7.5562  -7.4541  -7.4539  -7.4321  -7.4094  -7.3249  -7.3248
    -7.2911  -7.2907  -7.0228  -7.0105  -7.0041  -7.0038  -6.9908  -6.9904
    -6.9622  -6.9619  -6.7759  -6.7391  -6.7390  -6.5942  -6.5941  -6.4726
    -6.4725  -6.4548  -6.4548  -6.3772  -6.3382  -6.3382  -6.3337  -6.3335
    -6.3003  -6.2968  -6.2967  -6.2175  -6.2063  -6.2063  -6.1760  -6.1759
    -6.1349  -6.1348  -6.0656  -5.5302  -5.5300  -4.8912  -3.9089  -3.9088
    -3.1875  -3.1870  -3.1040  -2.0879  -1.8105  -1.8103  -1.5586  -1.1122
    -1.1108  -0.7781  -0.7762  -0.7070  -0.7061   0.1897   0.4097   0.4101
     0.4660

     occupation numbers 
     1.0000   1.0000   1.0000   1.0000   1.0000   1.0000   1.0000   1.0000
     1.0000   1.0000   1.0000   1.0000   1.0000   1.0000   1.0000   1.0000
     1.0000   1.0000   1.0000   1.0000   1.0000   1.0000   1.0000   1.0000
     1.0000   1.0000   1.0000   1.0000   1.0000   1.0000   1.0000   1.0000
     1.0000   1.0000   1.0000   1.0000   1.0000   1.0000   1.0000   1.0000
     1.0000   1.0000   1.0000   1.0000   1.0000   1.0000   1.0000   1.0000
     1.0000   1.0000   1.0000   1.0000   1.0000   1.0000   1.0000   1.0000
     1.0000   1.0000   1.0000   1.0000   1.0000   1.0000   1.0000   1.0000
     1.0000   1.0000   1.0000   1.0000   1.0000   1.0000   1.0000   1.0000
     1.0000   1.0000   1.0000   0.0000   0.0000   0.0000   0.0000   0.0000
     0.0000   0.0000   0.0000   0.0000   0.0000   0.0000   0.0000   0.0000
     0.0000

 ------ SPIN DOWN ----------


          k = 0.0000 0.0000 0.0000 (163015 PWs)   bands (ev):

   -25.5440 -25.5381 -25.5381 -25.4871 -25.4871 -13.5928  -9.1149  -8.7849
    -8.7848  -8.7733  -8.7732  -8.6735  -7.8813  -7.8810  -7.7642  -7.7641
    -7.7096  -7.6779  -7.6414  -7.6414  -7.6311  -7.6310  -7.5542  -7.5541
    -7.4934  -7.4932  -7.3855  -7.3669  -7.3667  -7.2886  -7.2608  -7.2607
    -7.2199  -7.2196  -6.9723  -6.9561  -6.9558  -6.9553  -6.9400  -6.9396
    -6.9159  -6.9157  -6.7040  -6.6761  -6.6760  -6.5285  -6.5284  -6.4220
    -6.4218  -6.4078  -6.4077  -6.3053  -6.2924  -6.2924  -6.2888  -6.2885
    -6.2483  -6.2482  -6.2400  -6.1618  -6.1569  -6.1569  -6.1175  -6.1173
    -6.0722  -6.0721  -6.0331  -5.3632  -5.3630  -4.7726  -3.7812  -3.7811
    -2.8607  -2.8602  -2.7610  -1.9462  -1.6210  -1.6209  -1.3293  -0.8763
    -0.8752  -0.4972  -0.4970  -0.4563  -0.4536   0.3356   0.5747   0.6306
     0.6334

     occupation numbers 
     1.0000   1.0000   1.0000   1.0000   1.0000   1.0000   1.0000   1.0000
     1.0000   1.0000   1.0000   1.0000   1.0000   1.0000   1.0000   1.0000
     1.0000   1.0000   1.0000   1.0000   1.0000   1.0000   1.0000   1.0000
     1.0000   1.0000   1.0000   1.0000   1.0000   1.0000   1.0000   1.0000
     1.0000   1.0000   1.0000   1.0000   1.0000   1.0000   1.0000   1.0000
     1.0000   1.0000   1.0000   1.0000   1.0000   1.0000   1.0000   1.0000
     1.0000   1.0000   1.0000   1.0000   1.0000   1.0000   1.0000   1.0000
     1.0000   1.0000   1.0000   1.0000   1.0000   1.0000   1.0000   1.0000
     1.0000   1.0000   1.0000   1.0000   1.0000   1.0000   1.0000   1.0000
     0.0000   0.0000   0.0000   0.0000   0.0000   0.0000   0.0000   0.0000
     0.0000   0.0000   0.0000   0.0000   0.0000   0.0000   0.0000   0.0000
     0.0000

     the Fermi energy is    -2.9855 ev

!    total energy              =   -5169.26112217 Ry
     Harris-Foulkes estimate   =   -5169.26112199 Ry
     estimated scf accuracy    <          5.8E-09 Ry

     total all-electron energy =   -170648.311784 Ry

     The total energy is the sum of the following terms:

     one-electron contribution =   -3777.08571095 Ry
     hartree contribution      =    1984.36708172 Ry
     xc contribution           =    -459.87970504 Ry
     ewald contribution        =     989.86276629 Ry
     one-center paw contrib.   =   -3906.52555412 Ry
      -> PAW hartree energy AE =      66.87808187 Ry
      -> PAW hartree energy PS =     -66.73058653 Ry
      -> PAW xc energy AE      =    -297.86705677 Ry
      -> PAW xc energy PS      =      35.22458981 Ry
      -> total E_H with PAW    =    1984.51457705 Ry
      -> total E_XC with PAW   =    -722.52217200 Ry
     smearing contrib. (-TS)   =      -0.00000008 Ry

     total magnetization       =     3.00 Bohr mag/cell
     absolute magnetization    =     3.14 Bohr mag/cell

     convergence has been achieved in  23 iterations

     Writing output data file ./tmp/ag12Bil.save/
 
     init_run     :     71.11s CPU     74.09s WALL (       1 calls)
     electrons    :   2890.39s CPU   2988.83s WALL (       1 calls)

     Called by init_run:
     wfcinit      :     18.75s CPU     18.99s WALL (       1 calls)
     wfcinit:atom :      0.11s CPU      0.14s WALL (       2 calls)
     wfcinit:wfcr :     18.39s CPU     18.54s WALL (       2 calls)
     potinit      :     13.42s CPU     14.03s WALL (       1 calls)
     hinit0       :      5.14s CPU      5.27s WALL (       1 calls)

     Called by electrons:
     c_bands      :    847.95s CPU    857.11s WALL (      23 calls)
     sum_band     :   1237.03s CPU   1282.97s WALL (      23 calls)
     v_of_rho     :    222.70s CPU    226.26s WALL (      24 calls)
     v_h          :     14.58s CPU     14.88s WALL (      24 calls)
     v_xc         :    208.12s CPU    211.37s WALL (      24 calls)
     newd         :    422.26s CPU    460.94s WALL (      24 calls)
     PAW_pot      :     30.82s CPU     31.12s WALL (      24 calls)
     mix_rho      :    121.27s CPU    123.15s WALL (      23 calls)

     Called by c_bands:
     init_us_2    :      4.06s CPU      4.14s WALL (      94 calls)
     regterg      :    826.75s CPU    835.73s WALL (      46 calls)

     Called by sum_band:
     sum_band:bec :      0.03s CPU      0.03s WALL (      46 calls)
     addusdens    :   1030.06s CPU   1074.95s WALL (      23 calls)

     Called by *egterg:
     h_psi        :    692.10s CPU    694.92s WALL (     326 calls)
     s_psi        :     40.68s CPU     40.75s WALL (     326 calls)
     g_psi        :      1.16s CPU      1.17s WALL (     278 calls)
     rdiaghg      :      8.75s CPU      9.26s WALL (     324 calls)
     regterg:over :     36.84s CPU     36.94s WALL (     278 calls)
     regterg:upda :     34.96s CPU     35.46s WALL (     278 calls)
     regterg:last :      9.41s CPU      9.48s WALL (      46 calls)
     rdiaghg:chol :      0.30s CPU      0.31s WALL (     324 calls)
     rdiaghg:inve :      0.25s CPU      0.25s WALL (     324 calls)
     rdiaghg:para :      0.78s CPU      0.79s WALL (     648 calls)

     Called by h_psi:
     h_psi:calbec :     28.56s CPU     28.63s WALL (     326 calls)
     vloc_psi     :    619.31s CPU    621.94s WALL (     326 calls)
     add_vuspsi   :     41.58s CPU     41.69s WALL (     326 calls)

     General routines
     calbec       :     36.90s CPU     37.00s WALL (     372 calls)
     fft          :    226.15s CPU    227.26s WALL (     497 calls)
     ffts         :     58.00s CPU     58.27s WALL (     572 calls)
     fftw         :    513.34s CPU    515.71s WALL (   11816 calls)
     interpolate  :     30.06s CPU     30.32s WALL (      48 calls)
 
     Parallel routines
     fft_scatt_xy :    120.32s CPU    120.93s WALL (   12885 calls)
     fft_scatt_yz :    254.47s CPU    255.63s WALL (   12885 calls)

     PAW routines
     PAW_pot      :     30.82s CPU     31.12s WALL (      24 calls)
 
     PWSCF        :  49m26.38s CPU  51m 9.58s WALL

 
   This run was terminated on:   6:13: 9   4Jan2021            

=------------------------------------------------------------------------------=
   JOB DONE.
=------------------------------------------------------------------------------=
