
     Program PWSCF v.6.5 starts on  4Jan2021 at  3:50:40 

     This program is part of the open-source Quantum ESPRESSO suite
     for quantum simulation of materials; please cite
         "P. Giannozzi et al., J. Phys.:Condens. Matter 21 395502 (2009);
         "P. Giannozzi et al., J. Phys.:Condens. Matter 29 465901 (2017);
          URL http://www.quantum-espresso.org", 
     in publications or presentations arising from this work. More details at
     http://www.quantum-espresso.org/quote

     Parallel version (MPI & OpenMP), running on      24 processor cores
     Number of MPI processes:                24
     Threads/MPI process:                     1

     MPI processes distributed on     1 nodes
     R & G space division:  proc/nbgrp/npool/nimage =      24
     Waiting for input...
     Reading input from standard input

     Current dimensions of program PWSCF are:
     Max number of different atomic species (ntypx) = 10
     Max number of k-points (npk) =  40000
     Max angular momentum in pseudopotentials (lmaxx) =  3
               file Ag.pbe-dn-kjpaw_psl.0.1.UPF: wavefunction(s)  5S 5P 4D renormalized
               file Bi.pbe-dn-kjpaw_psl.1.0.0.UPF: wavefunction(s)  6P 5D renormalized

     gamma-point specific algorithms are used

     Subspace diagonalization in iterative solution of the eigenvalue problem:
     one sub-group per band group will be used
     scalapack distributed-memory algorithm (size of sub-group:  4*  4 procs)

 
     Parallelization info
     --------------------
     sticks:   dense  smooth     PW     G-vecs:    dense   smooth      PW
     Min        2383     953    237               429816   108738   13581
     Max        2386     956    240               429830   108748   13592
     Sum       57249   22901   5721             10315775  2609847  326029
 


     bravais-lattice index     =            1
     lattice parameter (alat)  =      30.0000  a.u.
     unit-cell volume          =   27000.0000 (a.u.)^3
     number of atoms/cell      =           13
     number of atomic types    =            2
     number of electrons       =       147.00
     number of Kohn-Sham states=           89
     kinetic-energy cutoff     =      80.0000  Ry
     charge density cutoff     =     800.0000  Ry
     convergence threshold     =      1.0E-08
     mixing beta               =       0.7000
     number of iterations used =            8  local-TF  mixing
     Exchange-correlation= SLA PW PBX PBC
                           (   1   4   3   4   0   0   0)

     celldm(1)=  30.000000  celldm(2)=   0.000000  celldm(3)=   0.000000
     celldm(4)=   0.000000  celldm(5)=   0.000000  celldm(6)=   0.000000

     crystal axes: (cart. coord. in units of alat)
               a(1) = (   1.000000   0.000000   0.000000 )  
               a(2) = (   0.000000   1.000000   0.000000 )  
               a(3) = (   0.000000   0.000000   1.000000 )  

     reciprocal axes: (cart. coord. in units 2 pi/alat)
               b(1) = (  1.000000  0.000000  0.000000 )  
               b(2) = (  0.000000  1.000000  0.000000 )  
               b(3) = (  0.000000  0.000000  1.000000 )  


     PseudoPot. # 1 for Ag read from file:
     ../../pseudo/Ag.pbe-dn-kjpaw_psl.0.1.UPF
     MD5 check sum: 2edc915f30f03476250949c796a6a376
     Pseudo is Projector augmented-wave + core cor, Zval = 11.0
     Generated using "atomic" code by A. Dal Corso v.5.0.2 svn rev. 9415
     Shape of augmentation charge: PSQ
     Using radial grid of 1237 points,  6 beta functions with: 
                l(1) =   0
                l(2) =   0
                l(3) =   1
                l(4) =   1
                l(5) =   2
                l(6) =   2
     Q(r) pseudized with 0 coefficients 


     PseudoPot. # 2 for Bi read from file:
     ../../pseudo/Bi.pbe-dn-kjpaw_psl.1.0.0.UPF
     MD5 check sum: 266ded784ae3bc462508ed03f0f37963
     Pseudo is Projector augmented-wave + core cor, Zval = 15.0
     Generated using "atomic" code by A. Dal Corso v.6.2.2
     Shape of augmentation charge: PSQ
     Using radial grid of 1283 points,  6 beta functions with: 
                l(1) =   0
                l(2) =   0
                l(3) =   1
                l(4) =   1
                l(5) =   2
                l(6) =   2
     Q(r) pseudized with 0 coefficients 


     atomic species   valence    mass     pseudopotential
        Ag            11.00   107.87000     Ag( 1.00)
        Bi            15.00   208.98000     Bi( 1.00)

     Starting magnetic structure 
     atomic species   magnetization
        Ag           0.700
        Bi           0.000

     No symmetry found


                                    s                        frac. trans.

      isym =  1     identity                                     

 cryst.   s( 1) = (     1          0          0      )
                  (     0          1          0      )
                  (     0          0          1      )

 cart.    s( 1) = (  1.0000000  0.0000000  0.0000000 )
                  (  0.0000000  1.0000000  0.0000000 )
                  (  0.0000000  0.0000000  1.0000000 )


     point group C_1 (1)    
     there are  1 classes
     the character table:

       E    
A      1.00

     the symmetry operations in each class and the name of the first element:

     E        1
          identity                                               

   Cartesian axes

     site n.     atom                  positions (alat units)
         1           Ag  tau(   1) = (   0.1482164   0.1449496   0.2853705  )
         2           Ag  tau(   2) = (   0.1794160   0.3113257   0.3563652  )
         3           Ag  tau(   3) = (   0.4315329   0.2203186   0.2297755  )
         4           Ag  tau(   4) = (   0.3104401   0.1833726   0.3621717  )
         5           Ag  tau(   5) = (   0.3479443   0.2058768   0.0669794  )
         6           Ag  tau(   6) = (   0.3753741   0.3710792   0.1421455  )
         7           Ag  tau(   7) = (   0.1713498   0.1603092   0.1017503  )
         8           Ag  tau(   8) = (   0.2598156   0.2557977   0.2093519  )
         9           Ag  tau(   9) = (   0.2195484   0.4273174   0.2203687  )
        10           Bi  tau(  10) = (   0.3601669   0.3641017   0.3313630  )
        11           Ag  tau(  11) = (   0.0909362   0.2985977   0.1960131  )
        12           Ag  tau(  12) = (   0.2144206   0.3363141   0.0610748  )
        13           Ag  tau(  13) = (   0.3070306   0.0876049   0.2056120  )

   Crystallographic axes

     site n.     atom                  positions (cryst. coord.)
         1           Ag  tau(   1) = (  0.1482164  0.1449496  0.2853705  )
         2           Ag  tau(   2) = (  0.1794160  0.3113257  0.3563652  )
         3           Ag  tau(   3) = (  0.4315329  0.2203186  0.2297755  )
         4           Ag  tau(   4) = (  0.3104401  0.1833726  0.3621717  )
         5           Ag  tau(   5) = (  0.3479443  0.2058768  0.0669794  )
         6           Ag  tau(   6) = (  0.3753741  0.3710792  0.1421455  )
         7           Ag  tau(   7) = (  0.1713498  0.1603092  0.1017503  )
         8           Ag  tau(   8) = (  0.2598156  0.2557977  0.2093519  )
         9           Ag  tau(   9) = (  0.2195484  0.4273174  0.2203687  )
        10           Bi  tau(  10) = (  0.3601669  0.3641017  0.3313630  )
        11           Ag  tau(  11) = (  0.0909362  0.2985977  0.1960131  )
        12           Ag  tau(  12) = (  0.2144206  0.3363141  0.0610748  )
        13           Ag  tau(  13) = (  0.3070306  0.0876049  0.2056120  )

     number of k points=     1  Fermi-Dirac smearing, width (Ry)=  0.0007
                       cart. coord. in units 2pi/alat
        k(    1) = (   0.0000000   0.0000000   0.0000000), wk =   1.0000000

                       cryst. coord.
        k(    1) = (   0.0000000   0.0000000   0.0000000), wk =   1.0000000

     Dense  grid:  5157888 G-vectors     FFT dimensions: ( 288, 288, 288)

     Smooth grid:  1304924 G-vectors     FFT dimensions: ( 180, 180, 180)

     Dynamical RAM for                 wfc:       9.23 MB

     Dynamical RAM for     wfc (w. buffer):      27.69 MB

     Dynamical RAM for           str. fact:       6.56 MB

     Dynamical RAM for           local pot:       0.00 MB

     Dynamical RAM for          nlocal pot:      24.27 MB

     Dynamical RAM for                qrad:      21.64 MB

     Dynamical RAM for          rho,v,vnew:      65.24 MB

     Dynamical RAM for               rhoin:      21.75 MB

     Dynamical RAM for            rho*nmix:     104.94 MB

     Dynamical RAM for           G-vectors:      12.71 MB

     Dynamical RAM for          h,s,v(r/c):       0.18 MB

     Dynamical RAM for          <psi|beta>:       0.16 MB

     Dynamical RAM for                 psi:      36.92 MB

     Dynamical RAM for                hpsi:      36.92 MB

     Dynamical RAM for                spsi:      36.92 MB

     Dynamical RAM for      wfcinit/wfcrot:      24.58 MB

     Dynamical RAM for           addusdens:     652.57 MB

     Estimated static dynamical RAM per process >     340.19 MB

     Estimated max dynamical RAM per process >     992.76 MB

     Estimated total dynamical RAM >      23.27 GB
     Generating pointlists ...
     new r_m :   0.0697 (alat units)  2.0900 (a.u.) for type    1
     new r_m :   0.0784 (alat units)  2.3506 (a.u.) for type    2

     Check: negative core charge=   -0.000002

     Initial potential from superposition of free atoms

     starting charge  146.99440, renormalised to  147.00000
     Starting wfcs are  117 randomized atomic wfcs
     Checking if some PAW data can be deallocated... 
       PAW data deallocated on    2 nodes for type:  1
       PAW data deallocated on   22 nodes for type:  2

     total cpu time spent up to now is       65.3 secs

     Self-consistent Calculation

     iteration #  1     ecut=    80.00 Ry     beta= 0.70
     Davidson diagonalization with overlap
     ethr =  1.00E-02,  avg # of iterations =  3.5

     total cpu time spent up to now is      175.1 secs

     total energy              =   -5168.34997090 Ry
     Harris-Foulkes estimate   =   -5162.03912307 Ry
     estimated scf accuracy    <       6.70685797 Ry

     total magnetization       =     5.00 Bohr mag/cell
     absolute magnetization    =     5.46 Bohr mag/cell

     iteration #  2     ecut=    80.00 Ry     beta= 0.70
     Davidson diagonalization with overlap
     ethr =  4.56E-03,  avg # of iterations =  1.0

     total cpu time spent up to now is      279.2 secs

     total energy              =   -5169.20159153 Ry
     Harris-Foulkes estimate   =   -5168.56277547 Ry
     estimated scf accuracy    <       0.93705280 Ry

     total magnetization       =     3.00 Bohr mag/cell
     absolute magnetization    =     3.41 Bohr mag/cell

     iteration #  3     ecut=    80.00 Ry     beta= 0.70
     Davidson diagonalization with overlap
     ethr =  6.37E-04,  avg # of iterations =  2.5

     total cpu time spent up to now is      385.9 secs

     total energy              =   -5169.25306423 Ry
     Harris-Foulkes estimate   =   -5169.26504355 Ry
     estimated scf accuracy    <       0.08012833 Ry

     total magnetization       =     2.98 Bohr mag/cell
     absolute magnetization    =     3.08 Bohr mag/cell

     iteration #  4     ecut=    80.00 Ry     beta= 0.70
     Davidson diagonalization with overlap
     ethr =  5.45E-05,  avg # of iterations = 10.0

     total cpu time spent up to now is      514.9 secs

     total energy              =   -5169.26379484 Ry
     Harris-Foulkes estimate   =   -5169.27173806 Ry
     estimated scf accuracy    <       0.03566162 Ry

     total magnetization       =     3.00 Bohr mag/cell
     absolute magnetization    =     3.10 Bohr mag/cell

     iteration #  5     ecut=    80.00 Ry     beta= 0.70
     Davidson diagonalization with overlap
     ethr =  2.43E-05,  avg # of iterations =  3.0

     total cpu time spent up to now is      621.7 secs

     total energy              =   -5169.25855626 Ry
     Harris-Foulkes estimate   =   -5169.26532524 Ry
     estimated scf accuracy    <       0.01988911 Ry

     total magnetization       =     3.00 Bohr mag/cell
     absolute magnetization    =     3.13 Bohr mag/cell

     iteration #  6     ecut=    80.00 Ry     beta= 0.70
     Davidson diagonalization with overlap
     ethr =  1.35E-05,  avg # of iterations =  9.0

     total cpu time spent up to now is      737.5 secs

     total energy              =   -5169.25762795 Ry
     Harris-Foulkes estimate   =   -5169.25964923 Ry
     estimated scf accuracy    <       0.01072617 Ry

     total magnetization       =     3.00 Bohr mag/cell
     absolute magnetization    =     3.16 Bohr mag/cell

     iteration #  7     ecut=    80.00 Ry     beta= 0.70
     Davidson diagonalization with overlap
     ethr =  7.30E-06,  avg # of iterations =  8.0

     total cpu time spent up to now is      851.8 secs

     total energy              =   -5169.25588990 Ry
     Harris-Foulkes estimate   =   -5169.25814804 Ry
     estimated scf accuracy    <       0.00567559 Ry

     total magnetization       =     3.00 Bohr mag/cell
     absolute magnetization    =     3.15 Bohr mag/cell

     iteration #  8     ecut=    80.00 Ry     beta= 0.70
     Davidson diagonalization with overlap
     ethr =  3.86E-06,  avg # of iterations = 10.5

     total cpu time spent up to now is      970.4 secs

     total energy              =   -5169.25787745 Ry
     Harris-Foulkes estimate   =   -5169.25614014 Ry
     estimated scf accuracy    <       0.00347142 Ry

     total magnetization       =     3.00 Bohr mag/cell
     absolute magnetization    =     3.15 Bohr mag/cell

     iteration #  9     ecut=    80.00 Ry     beta= 0.70
     Davidson diagonalization with overlap
     ethr =  2.36E-06,  avg # of iterations =  7.5

     total cpu time spent up to now is     1086.2 secs

     total energy              =   -5169.26036661 Ry
     Harris-Foulkes estimate   =   -5169.25802876 Ry
     estimated scf accuracy    <       0.00181552 Ry

     total magnetization       =     3.00 Bohr mag/cell
     absolute magnetization    =     3.14 Bohr mag/cell

     iteration # 10     ecut=    80.00 Ry     beta= 0.70
     Davidson diagonalization with overlap
     ethr =  1.24E-06,  avg # of iterations =  9.5

     total cpu time spent up to now is     1202.7 secs

     total energy              =   -5169.26126300 Ry
     Harris-Foulkes estimate   =   -5169.26045870 Ry
     estimated scf accuracy    <       0.00090909 Ry

     total magnetization       =     3.00 Bohr mag/cell
     absolute magnetization    =     3.14 Bohr mag/cell

     iteration # 11     ecut=    80.00 Ry     beta= 0.70
     Davidson diagonalization with overlap
     ethr =  6.18E-07,  avg # of iterations =  9.0

     total cpu time spent up to now is     1318.5 secs

     total energy              =   -5169.26174190 Ry
     Harris-Foulkes estimate   =   -5169.26132586 Ry
     estimated scf accuracy    <       0.00052669 Ry

     total magnetization       =     3.00 Bohr mag/cell
     absolute magnetization    =     3.14 Bohr mag/cell

     iteration # 12     ecut=    80.00 Ry     beta= 0.70
     Davidson diagonalization with overlap
     ethr =  3.58E-07,  avg # of iterations =  5.0

     total cpu time spent up to now is     1427.8 secs

     total energy              =   -5169.26180841 Ry
     Harris-Foulkes estimate   =   -5169.26176274 Ry
     estimated scf accuracy    <       0.00031717 Ry

     total magnetization       =     3.00 Bohr mag/cell
     absolute magnetization    =     3.14 Bohr mag/cell

     iteration # 13     ecut=    80.00 Ry     beta= 0.70
     Davidson diagonalization with overlap
     ethr =  2.16E-07,  avg # of iterations =  9.5

     total cpu time spent up to now is     1543.9 secs

     total energy              =   -5169.26180321 Ry
     Harris-Foulkes estimate   =   -5169.26182892 Ry
     estimated scf accuracy    <       0.00011131 Ry

     total magnetization       =     3.00 Bohr mag/cell
     absolute magnetization    =     3.14 Bohr mag/cell

     iteration # 14     ecut=    80.00 Ry     beta= 0.70
     Davidson diagonalization with overlap
     ethr =  7.57E-08,  avg # of iterations =  6.0

     total cpu time spent up to now is     1652.3 secs

     total energy              =   -5169.26200771 Ry
     Harris-Foulkes estimate   =   -5169.26180597 Ry
     estimated scf accuracy    <       0.00005422 Ry

     total magnetization       =     3.00 Bohr mag/cell
     absolute magnetization    =     3.14 Bohr mag/cell

     iteration # 15     ecut=    80.00 Ry     beta= 0.70
     Davidson diagonalization with overlap
     ethr =  3.69E-08,  avg # of iterations =  7.5

     total cpu time spent up to now is     1764.7 secs

     total energy              =   -5169.26206749 Ry
     Harris-Foulkes estimate   =   -5169.26201206 Ry
     estimated scf accuracy    <       0.00001643 Ry

     total magnetization       =     3.00 Bohr mag/cell
     absolute magnetization    =     3.14 Bohr mag/cell

     iteration # 16     ecut=    80.00 Ry     beta= 0.70
     Davidson diagonalization with overlap
     ethr =  1.12E-08,  avg # of iterations =  2.5

     total cpu time spent up to now is     1872.0 secs

     total energy              =   -5169.26208513 Ry
     Harris-Foulkes estimate   =   -5169.26206819 Ry
     estimated scf accuracy    <       0.00000891 Ry

     total magnetization       =     3.00 Bohr mag/cell
     absolute magnetization    =     3.14 Bohr mag/cell

     iteration # 17     ecut=    80.00 Ry     beta= 0.70
     Davidson diagonalization with overlap
     ethr =  6.06E-09,  avg # of iterations =  7.0

     total cpu time spent up to now is     1982.7 secs

     total energy              =   -5169.26208776 Ry
     Harris-Foulkes estimate   =   -5169.26208591 Ry
     estimated scf accuracy    <       0.00000312 Ry

     total magnetization       =     3.00 Bohr mag/cell
     absolute magnetization    =     3.14 Bohr mag/cell

     iteration # 18     ecut=    80.00 Ry     beta= 0.70
     Davidson diagonalization with overlap
     ethr =  2.12E-09,  avg # of iterations =  2.5

     total cpu time spent up to now is     2089.0 secs

     total energy              =   -5169.26208982 Ry
     Harris-Foulkes estimate   =   -5169.26208788 Ry
     estimated scf accuracy    <       0.00000117 Ry

     total magnetization       =     3.00 Bohr mag/cell
     absolute magnetization    =     3.14 Bohr mag/cell

     iteration # 19     ecut=    80.00 Ry     beta= 0.70
     Davidson diagonalization with overlap
     ethr =  7.93E-10,  avg # of iterations =  4.0

     total cpu time spent up to now is     2197.9 secs

     total energy              =   -5169.26209033 Ry
     Harris-Foulkes estimate   =   -5169.26208998 Ry
     estimated scf accuracy    <       0.00000030 Ry

     total magnetization       =     3.00 Bohr mag/cell
     absolute magnetization    =     3.14 Bohr mag/cell

     iteration # 20     ecut=    80.00 Ry     beta= 0.70
     Davidson diagonalization with overlap
     ethr =  2.07E-10,  avg # of iterations =  2.5

     total cpu time spent up to now is     2304.2 secs

     total energy              =   -5169.26209088 Ry
     Harris-Foulkes estimate   =   -5169.26209036 Ry
     estimated scf accuracy    <       0.00000012 Ry

     total magnetization       =     3.00 Bohr mag/cell
     absolute magnetization    =     3.14 Bohr mag/cell

     iteration # 21     ecut=    80.00 Ry     beta= 0.70
     Davidson diagonalization with overlap
     ethr =  7.96E-11,  avg # of iterations =  3.5

     total cpu time spent up to now is     2413.4 secs

     total energy              =   -5169.26209103 Ry
     Harris-Foulkes estimate   =   -5169.26209089 Ry
     estimated scf accuracy    <       0.00000004 Ry

     total magnetization       =     3.00 Bohr mag/cell
     absolute magnetization    =     3.14 Bohr mag/cell

     iteration # 22     ecut=    80.00 Ry     beta= 0.70
     Davidson diagonalization with overlap
     ethr =  2.46E-11,  avg # of iterations =  3.0

     total cpu time spent up to now is     2520.9 secs

     total energy              =   -5169.26209116 Ry
     Harris-Foulkes estimate   =   -5169.26209103 Ry
     estimated scf accuracy    <       0.00000002 Ry

     total magnetization       =     3.00 Bohr mag/cell
     absolute magnetization    =     3.14 Bohr mag/cell

     iteration # 23     ecut=    80.00 Ry     beta= 0.70
     Davidson diagonalization with overlap
     ethr =  1.07E-11,  avg # of iterations =  4.0
 
     Magnetic moment per site:
     atom:    1    charge:    9.2278    magn:    0.0512    constr:    0.0000
     atom:    2    charge:    9.2282    magn:    0.0703    constr:    0.0000
     atom:    3    charge:    9.2282    magn:    0.0703    constr:    0.0000
     atom:    4    charge:    9.2282    magn:    0.0703    constr:    0.0000
     atom:    5    charge:    9.2277    magn:    0.0511    constr:    0.0000
     atom:    6    charge:    9.2282    magn:    0.0703    constr:    0.0000
     atom:    7    charge:    9.2308    magn:    0.0279    constr:    0.0000
     atom:    8    charge:    9.3243    magn:    0.1106    constr:    0.0000
     atom:    9    charge:    9.2282    magn:    0.0703    constr:    0.0000
     atom:   10    charge:   12.6160    magn:    0.1155    constr:    0.0000
     atom:   11    charge:    9.2277    magn:    0.0511    constr:    0.0000
     atom:   12    charge:    9.2277    magn:    0.0512    constr:    0.0000
     atom:   13    charge:    9.2277    magn:    0.0511    constr:    0.0000

     total cpu time spent up to now is     2624.8 secs

     End of self-consistent calculation

 ------ SPIN UP ------------


          k = 0.0000 0.0000 0.0000 (163015 PWs)   bands (ev):

   -25.6109 -25.5876 -25.5876 -25.4978 -25.4978 -13.7510  -9.1732  -8.8651
    -8.8650  -8.8225  -8.8224  -8.7484  -7.9446  -7.9444  -7.8294  -7.8292
    -7.8058  -7.7831  -7.7008  -7.7007  -7.6861  -7.6860  -7.6327  -7.6326
    -7.5623  -7.5621  -7.4599  -7.4597  -7.4376  -7.4152  -7.3308  -7.3307
    -7.2968  -7.2964  -7.0287  -7.0164  -7.0099  -7.0096  -6.9967  -6.9963
    -6.9681  -6.9678  -6.7818  -6.7450  -6.7449  -6.5999  -6.5998  -6.4782
    -6.4781  -6.4605  -6.4604  -6.3829  -6.3439  -6.3439  -6.3395  -6.3392
    -6.3062  -6.3025  -6.3024  -6.2231  -6.2122  -6.2121  -6.1819  -6.1818
    -6.1408  -6.1406  -6.0715  -5.5355  -5.5353  -4.8966  -3.9144  -3.9144
    -3.1930  -3.1925  -3.1104  -2.0971  -1.8177  -1.8175  -1.5679  -1.1203
    -1.1189  -0.7873  -0.7852  -0.7243  -0.7233   0.1706   0.3841   0.3890
     0.3898

     occupation numbers 
     1.0000   1.0000   1.0000   1.0000   1.0000   1.0000   1.0000   1.0000
     1.0000   1.0000   1.0000   1.0000   1.0000   1.0000   1.0000   1.0000
     1.0000   1.0000   1.0000   1.0000   1.0000   1.0000   1.0000   1.0000
     1.0000   1.0000   1.0000   1.0000   1.0000   1.0000   1.0000   1.0000
     1.0000   1.0000   1.0000   1.0000   1.0000   1.0000   1.0000   1.0000
     1.0000   1.0000   1.0000   1.0000   1.0000   1.0000   1.0000   1.0000
     1.0000   1.0000   1.0000   1.0000   1.0000   1.0000   1.0000   1.0000
     1.0000   1.0000   1.0000   1.0000   1.0000   1.0000   1.0000   1.0000
     1.0000   1.0000   1.0000   1.0000   1.0000   1.0000   1.0000   1.0000
     1.0000   1.0000   1.0000   0.0000   0.0000   0.0000   0.0000   0.0000
     0.0000   0.0000   0.0000   0.0000   0.0000   0.0000   0.0000   0.0000
     0.0000

 ------ SPIN DOWN ----------


          k = 0.0000 0.0000 0.0000 (163015 PWs)   bands (ev):

   -25.5510 -25.5451 -25.5451 -25.4940 -25.4940 -13.5994  -9.1209  -8.7910
    -8.7909  -8.7795  -8.7793  -8.6797  -7.8872  -7.8869  -7.7701  -7.7700
    -7.7155  -7.6838  -7.6472  -7.6472  -7.6370  -7.6369  -7.5601  -7.5600
    -7.4994  -7.4992  -7.3912  -7.3728  -7.3726  -7.2944  -7.2667  -7.2666
    -7.2257  -7.2254  -6.9782  -6.9620  -6.9616  -6.9612  -6.9459  -6.9455
    -6.9218  -6.9215  -6.7100  -6.6821  -6.6820  -6.5343  -6.5342  -6.4277
    -6.4276  -6.4136  -6.4135  -6.3111  -6.2982  -6.2982  -6.2946  -6.2943
    -6.2541  -6.2540  -6.2460  -6.1676  -6.1628  -6.1627  -6.1234  -6.1233
    -6.0782  -6.0780  -6.0390  -5.3690  -5.3688  -4.7784  -3.7872  -3.7872
    -2.8680  -2.8675  -2.7693  -1.9563  -1.6293  -1.6292  -1.3402  -0.8856
    -0.8845  -0.5173  -0.5170  -0.4688  -0.4659   0.3139   0.4791   0.6026
     0.6079

     occupation numbers 
     1.0000   1.0000   1.0000   1.0000   1.0000   1.0000   1.0000   1.0000
     1.0000   1.0000   1.0000   1.0000   1.0000   1.0000   1.0000   1.0000
     1.0000   1.0000   1.0000   1.0000   1.0000   1.0000   1.0000   1.0000
     1.0000   1.0000   1.0000   1.0000   1.0000   1.0000   1.0000   1.0000
     1.0000   1.0000   1.0000   1.0000   1.0000   1.0000   1.0000   1.0000
     1.0000   1.0000   1.0000   1.0000   1.0000   1.0000   1.0000   1.0000
     1.0000   1.0000   1.0000   1.0000   1.0000   1.0000   1.0000   1.0000
     1.0000   1.0000   1.0000   1.0000   1.0000   1.0000   1.0000   1.0000
     1.0000   1.0000   1.0000   1.0000   1.0000   1.0000   1.0000   1.0000
     0.0000   0.0000   0.0000   0.0000   0.0000   0.0000   0.0000   0.0000
     0.0000   0.0000   0.0000   0.0000   0.0000   0.0000   0.0000   0.0000
     0.0000

     the Fermi energy is    -2.9924 ev

!    total energy              =   -5169.26209116 Ry
     Harris-Foulkes estimate   =   -5169.26209116 Ry
     estimated scf accuracy    <          6.2E-09 Ry

     total all-electron energy =   -170648.312753 Ry

     The total energy is the sum of the following terms:

     one-electron contribution =   -3777.02285582 Ry
     hartree contribution      =    1984.30245959 Ry
     xc contribution           =    -459.87894200 Ry
     ewald contribution        =     989.86276629 Ry
     one-center paw contrib.   =   -3906.52551914 Ry
      -> PAW hartree energy AE =      66.87715114 Ry
      -> PAW hartree energy PS =     -66.72963806 Ry
      -> PAW xc energy AE      =    -297.86704421 Ry
      -> PAW xc energy PS      =      35.22456252 Ry
      -> total E_H with PAW    =    1984.44997268 Ry
      -> total E_XC with PAW   =    -722.52142369 Ry
     smearing contrib. (-TS)   =      -0.00000008 Ry

     total magnetization       =     3.00 Bohr mag/cell
     absolute magnetization    =     3.14 Bohr mag/cell

     convergence has been achieved in  23 iterations

     Writing output data file ./tmp/ag12Bil.save/
 
     init_run     :     58.82s CPU     61.15s WALL (       1 calls)
     electrons    :   2476.86s CPU   2560.30s WALL (       1 calls)

     Called by init_run:
     wfcinit      :     18.02s CPU     18.25s WALL (       1 calls)
     wfcinit:atom :      0.10s CPU      0.13s WALL (       2 calls)
     wfcinit:wfcr :     17.66s CPU     17.80s WALL (       2 calls)
     potinit      :     11.41s CPU     11.95s WALL (       1 calls)
     hinit0       :      4.27s CPU      4.39s WALL (       1 calls)

     Called by electrons:
     c_bands      :    828.11s CPU    837.56s WALL (      23 calls)
     sum_band     :    995.40s CPU   1032.38s WALL (      23 calls)
     v_of_rho     :    182.10s CPU    185.84s WALL (      24 calls)
     v_h          :     11.40s CPU     11.53s WALL (      24 calls)
     v_xc         :    170.70s CPU    174.30s WALL (      24 calls)
     newd         :    320.58s CPU    352.37s WALL (      24 calls)
     PAW_pot      :     30.90s CPU     31.24s WALL (      24 calls)
     mix_rho      :    111.08s CPU    112.96s WALL (      23 calls)

     Called by c_bands:
     init_us_2    :      4.14s CPU      4.24s WALL (      94 calls)
     regterg      :    806.99s CPU    816.26s WALL (      46 calls)

     Called by sum_band:
     sum_band:bec :      0.03s CPU      0.03s WALL (      46 calls)
     addusdens    :    792.14s CPU    827.80s WALL (      23 calls)

     Called by *egterg:
     h_psi        :    675.94s CPU    679.16s WALL (     309 calls)
     s_psi        :     40.69s CPU     40.76s WALL (     309 calls)
     g_psi        :      1.15s CPU      1.16s WALL (     261 calls)
     rdiaghg      :      8.19s CPU      8.67s WALL (     307 calls)
     regterg:over :     35.21s CPU     35.28s WALL (     261 calls)
     regterg:upda :     33.16s CPU     33.58s WALL (     261 calls)
     regterg:last :      9.23s CPU      9.25s WALL (      46 calls)
     rdiaghg:chol :      0.29s CPU      0.30s WALL (     307 calls)
     rdiaghg:inve :      0.23s CPU      0.23s WALL (     307 calls)
     rdiaghg:para :      0.71s CPU      0.72s WALL (     614 calls)

     Called by h_psi:
     h_psi:calbec :     27.86s CPU     27.95s WALL (     309 calls)
     vloc_psi     :    603.07s CPU    606.08s WALL (     309 calls)
     add_vuspsi   :     42.40s CPU     42.51s WALL (     309 calls)

     General routines
     calbec       :     36.36s CPU     36.48s WALL (     355 calls)
     fft          :    187.79s CPU    188.87s WALL (     497 calls)
     ffts         :     56.95s CPU     57.23s WALL (     570 calls)
     fftw         :    515.80s CPU    518.80s WALL (   11776 calls)
     interpolate  :     25.05s CPU     25.24s WALL (      48 calls)
 
     Parallel routines
     fft_scatt_xy :    112.13s CPU    112.95s WALL (   12843 calls)
     fft_scatt_yz :    234.13s CPU    235.44s WALL (   12843 calls)

     PAW routines
     PAW_pot      :     30.90s CPU     31.24s WALL (      24 calls)
 
     PWSCF        :  42m20.46s CPU  43m47.82s WALL

 
   This run was terminated on:   4:34:28   4Jan2021            

=------------------------------------------------------------------------------=
   JOB DONE.
=------------------------------------------------------------------------------=
