
     Program PWSCF v.6.5 starts on  5Jun2020 at 23:45:39 

     This program is part of the open-source Quantum ESPRESSO suite
     for quantum simulation of materials; please cite
         "P. Giannozzi et al., J. Phys.:Condens. Matter 21 395502 (2009);
         "P. Giannozzi et al., J. Phys.:Condens. Matter 29 465901 (2017);
          URL http://www.quantum-espresso.org", 
     in publications or presentations arising from this work. More details at
     http://www.quantum-espresso.org/quote

     Parallel version (MPI & OpenMP), running on      24 processor cores
     Number of MPI processes:                24
     Threads/MPI process:                     1

     MPI processes distributed on     1 nodes
     R & G space division:  proc/nbgrp/npool/nimage =      24
     Waiting for input...
     Reading input from standard input

     Current dimensions of program PWSCF are:
     Max number of different atomic species (ntypx) = 10
     Max number of k-points (npk) =  40000
     Max angular momentum in pseudopotentials (lmaxx) =  3
               file Ag.pbe-dn-kjpaw_psl.0.1.UPF: wavefunction(s)  5S 5P 4D renormalized
               file Bi.pbe-dn-kjpaw_psl.1.0.0.UPF: wavefunction(s)  6P 5D renormalized

     gamma-point specific algorithms are used

     Subspace diagonalization in iterative solution of the eigenvalue problem:
     one sub-group per band group will be used
     scalapack distributed-memory algorithm (size of sub-group:  4*  4 procs)

 
     Parallelization info
     --------------------
     sticks:   dense  smooth     PW     G-vecs:    dense   smooth      PW
     Min        2908     894    223               578388    98702   12352
     Max        2910     896    228               578398    98712   12356
     Sum       69833   21465   5385             13881491  2368925  296459
 


     bravais-lattice index     =            1
     lattice parameter (alat)  =      30.0000  a.u.
     unit-cell volume          =   27000.0000 (a.u.)^3
     number of atoms/cell      =           13
     number of atomic types    =            2
     number of electrons       =       147.00
     number of Kohn-Sham states=           89
     kinetic-energy cutoff     =      75.0000  Ry
     charge density cutoff     =     975.0000  Ry
     convergence threshold     =      1.0E-08
     mixing beta               =       0.7000
     number of iterations used =            8  local-TF  mixing
     Exchange-correlation= SLA PW PBX PBC
                           (   1   4   3   4   0   0   0)

     celldm(1)=  30.000000  celldm(2)=   0.000000  celldm(3)=   0.000000
     celldm(4)=   0.000000  celldm(5)=   0.000000  celldm(6)=   0.000000

     crystal axes: (cart. coord. in units of alat)
               a(1) = (   1.000000   0.000000   0.000000 )  
               a(2) = (   0.000000   1.000000   0.000000 )  
               a(3) = (   0.000000   0.000000   1.000000 )  

     reciprocal axes: (cart. coord. in units 2 pi/alat)
               b(1) = (  1.000000  0.000000  0.000000 )  
               b(2) = (  0.000000  1.000000  0.000000 )  
               b(3) = (  0.000000  0.000000  1.000000 )  


     PseudoPot. # 1 for Ag read from file:
     ../../pseudo/Ag.pbe-dn-kjpaw_psl.0.1.UPF
     MD5 check sum: 2edc915f30f03476250949c796a6a376
     Pseudo is Projector augmented-wave + core cor, Zval = 11.0
     Generated using "atomic" code by A. Dal Corso v.5.0.2 svn rev. 9415
     Shape of augmentation charge: PSQ
     Using radial grid of 1237 points,  6 beta functions with: 
                l(1) =   0
                l(2) =   0
                l(3) =   1
                l(4) =   1
                l(5) =   2
                l(6) =   2
     Q(r) pseudized with 0 coefficients 


     PseudoPot. # 2 for Bi read from file:
     ../../pseudo/Bi.pbe-dn-kjpaw_psl.1.0.0.UPF
     MD5 check sum: 266ded784ae3bc462508ed03f0f37963
     Pseudo is Projector augmented-wave + core cor, Zval = 15.0
     Generated using "atomic" code by A. Dal Corso v.6.2.2
     Shape of augmentation charge: PSQ
     Using radial grid of 1283 points,  6 beta functions with: 
                l(1) =   0
                l(2) =   0
                l(3) =   1
                l(4) =   1
                l(5) =   2
                l(6) =   2
     Q(r) pseudized with 0 coefficients 


     atomic species   valence    mass     pseudopotential
        Ag            11.00   107.87000     Ag( 1.00)
        Bi            15.00   208.98000     Bi( 1.00)

     Starting magnetic structure 
     atomic species   magnetization
        Ag           0.700
        Bi           0.000

     No symmetry found


                                    s                        frac. trans.

      isym =  1     identity                                     

 cryst.   s( 1) = (     1          0          0      )
                  (     0          1          0      )
                  (     0          0          1      )

 cart.    s( 1) = (  1.0000000  0.0000000  0.0000000 )
                  (  0.0000000  1.0000000  0.0000000 )
                  (  0.0000000  0.0000000  1.0000000 )


     point group C_1 (1)    
     there are  1 classes
     the character table:

       E    
A      1.00

     the symmetry operations in each class and the name of the first element:

     E        1
          identity                                               

   Cartesian axes

     site n.     atom                  positions (alat units)
         1           Ag  tau(   1) = (   0.1482164   0.1449496   0.2853703  )
         2           Ag  tau(   2) = (   0.1794160   0.3113257   0.3563652  )
         3           Ag  tau(   3) = (   0.4315329   0.2203186   0.2297755  )
         4           Ag  tau(   4) = (   0.3104401   0.1833726   0.3621717  )
         5           Ag  tau(   5) = (   0.3479443   0.2058768   0.0669794  )
         6           Ag  tau(   6) = (   0.3753741   0.3710792   0.1421455  )
         7           Ag  tau(   7) = (   0.1713498   0.1603092   0.1017503  )
         8           Ag  tau(   8) = (   0.2598156   0.2557977   0.2093519  )
         9           Ag  tau(   9) = (   0.2195484   0.4273174   0.2203687  )
        10           Bi  tau(  10) = (   0.3601669   0.3641017   0.3313630  )
        11           Ag  tau(  11) = (   0.0909362   0.2985977   0.1960131  )
        12           Ag  tau(  12) = (   0.2144206   0.3363141   0.0610748  )
        13           Ag  tau(  13) = (   0.3070306   0.0876049   0.2056120  )

   Crystallographic axes

     site n.     atom                  positions (cryst. coord.)
         1           Ag  tau(   1) = (  0.1482164  0.1449496  0.2853703  )
         2           Ag  tau(   2) = (  0.1794160  0.3113257  0.3563652  )
         3           Ag  tau(   3) = (  0.4315329  0.2203186  0.2297755  )
         4           Ag  tau(   4) = (  0.3104401  0.1833726  0.3621717  )
         5           Ag  tau(   5) = (  0.3479443  0.2058768  0.0669794  )
         6           Ag  tau(   6) = (  0.3753741  0.3710792  0.1421455  )
         7           Ag  tau(   7) = (  0.1713498  0.1603092  0.1017503  )
         8           Ag  tau(   8) = (  0.2598156  0.2557977  0.2093519  )
         9           Ag  tau(   9) = (  0.2195484  0.4273174  0.2203687  )
        10           Bi  tau(  10) = (  0.3601669  0.3641017  0.3313630  )
        11           Ag  tau(  11) = (  0.0909362  0.2985977  0.1960131  )
        12           Ag  tau(  12) = (  0.2144206  0.3363141  0.0610748  )
        13           Ag  tau(  13) = (  0.3070306  0.0876049  0.2056120  )

     number of k points=     1  Fermi-Dirac smearing, width (Ry)=  0.0007
                       cart. coord. in units 2pi/alat
        k(    1) = (   0.0000000   0.0000000   0.0000000), wk =   1.0000000

                       cryst. coord.
        k(    1) = (   0.0000000   0.0000000   0.0000000), wk =   1.0000000

     Dense  grid:  6940746 G-vectors     FFT dimensions: ( 300, 300, 300)

     Smooth grid:  1184463 G-vectors     FFT dimensions: ( 180, 180, 180)

     Dynamical RAM for                 wfc:       8.38 MB

     Dynamical RAM for     wfc (w. buffer):      25.13 MB

     Dynamical RAM for           str. fact:       8.83 MB

     Dynamical RAM for           local pot:       0.00 MB

     Dynamical RAM for          nlocal pot:      22.03 MB

     Dynamical RAM for                qrad:      23.89 MB

     Dynamical RAM for          rho,v,vnew:      80.03 MB

     Dynamical RAM for               rhoin:      26.68 MB

     Dynamical RAM for            rho*nmix:     141.21 MB

     Dynamical RAM for           G-vectors:      16.92 MB

     Dynamical RAM for          h,s,v(r/c):       0.18 MB

     Dynamical RAM for          <psi|beta>:       0.16 MB

     Dynamical RAM for                 psi:      33.51 MB

     Dynamical RAM for                hpsi:      33.51 MB

     Dynamical RAM for                spsi:      33.51 MB

     Dynamical RAM for      wfcinit/wfcrot:      22.34 MB

     Dynamical RAM for           addusdens:     878.14 MB

     Estimated static dynamical RAM per process >     411.52 MB

     Estimated max dynamical RAM per process >       1.26 GB

     Estimated total dynamical RAM >      30.23 GB
     Generating pointlists ...
     new r_m :   0.0697 (alat units)  2.0900 (a.u.) for type    1
     new r_m :   0.0784 (alat units)  2.3506 (a.u.) for type    2

     Initial potential from superposition of free atoms

     starting charge  146.99440, renormalised to  147.00000
     Starting wfcs are  117 randomized atomic wfcs
     Checking if some PAW data can be deallocated... 
       PAW data deallocated on    2 nodes for type:  1
       PAW data deallocated on   22 nodes for type:  2

     total cpu time spent up to now is       72.2 secs

     Self-consistent Calculation

     iteration #  1     ecut=    75.00 Ry     beta= 0.70
     Davidson diagonalization with overlap
     ethr =  1.00E-02,  avg # of iterations =  4.0

     total cpu time spent up to now is      193.2 secs

     total energy              =   -5168.35250838 Ry
     Harris-Foulkes estimate   =   -5162.04326856 Ry
     estimated scf accuracy    <       6.71497689 Ry

     total magnetization       =     5.00 Bohr mag/cell
     absolute magnetization    =     5.46 Bohr mag/cell

     iteration #  2     ecut=    75.00 Ry     beta= 0.70
     Davidson diagonalization with overlap
     ethr =  4.57E-03,  avg # of iterations =  1.0

     total cpu time spent up to now is      308.8 secs

     total energy              =   -5169.20074012 Ry
     Harris-Foulkes estimate   =   -5168.56268910 Ry
     estimated scf accuracy    <       0.93918518 Ry

     total magnetization       =     3.00 Bohr mag/cell
     absolute magnetization    =     3.42 Bohr mag/cell

     iteration #  3     ecut=    75.00 Ry     beta= 0.70
     Davidson diagonalization with overlap
     ethr =  6.39E-04,  avg # of iterations =  2.5

     total cpu time spent up to now is      422.8 secs

     total energy              =   -5169.25414532 Ry
     Harris-Foulkes estimate   =   -5169.26527897 Ry
     estimated scf accuracy    <       0.08032410 Ry

     total magnetization       =     2.98 Bohr mag/cell
     absolute magnetization    =     3.09 Bohr mag/cell

     iteration #  4     ecut=    75.00 Ry     beta= 0.70
     Davidson diagonalization with overlap
     ethr =  5.46E-05,  avg # of iterations = 10.0

     total cpu time spent up to now is      556.1 secs

     total energy              =   -5169.26371960 Ry
     Harris-Foulkes estimate   =   -5169.27126204 Ry
     estimated scf accuracy    <       0.03570752 Ry

     total magnetization       =     3.00 Bohr mag/cell
     absolute magnetization    =     3.10 Bohr mag/cell

     iteration #  5     ecut=    75.00 Ry     beta= 0.70
     Davidson diagonalization with overlap
     ethr =  2.43E-05,  avg # of iterations =  2.0

     total cpu time spent up to now is      671.9 secs

     total energy              =   -5169.25785984 Ry
     Harris-Foulkes estimate   =   -5169.26522169 Ry
     estimated scf accuracy    <       0.02016492 Ry

     total magnetization       =     3.00 Bohr mag/cell
     absolute magnetization    =     3.13 Bohr mag/cell

     iteration #  6     ecut=    75.00 Ry     beta= 0.70
     Davidson diagonalization with overlap
     ethr =  1.37E-05,  avg # of iterations =  9.5

     total cpu time spent up to now is      792.7 secs

     total energy              =   -5169.25648159 Ry
     Harris-Foulkes estimate   =   -5169.25902977 Ry
     estimated scf accuracy    <       0.01066709 Ry

     total magnetization       =     3.00 Bohr mag/cell
     absolute magnetization    =     3.17 Bohr mag/cell

     iteration #  7     ecut=    75.00 Ry     beta= 0.70
     Davidson diagonalization with overlap
     ethr =  7.26E-06,  avg # of iterations =  8.0

     total cpu time spent up to now is      913.6 secs

     total energy              =   -5169.25495163 Ry
     Harris-Foulkes estimate   =   -5169.25716660 Ry
     estimated scf accuracy    <       0.00547201 Ry

     total magnetization       =     3.00 Bohr mag/cell
     absolute magnetization    =     3.14 Bohr mag/cell

     iteration #  8     ecut=    75.00 Ry     beta= 0.70
     Davidson diagonalization with overlap
     ethr =  3.72E-06,  avg # of iterations = 11.5

     total cpu time spent up to now is     1036.8 secs

     total energy              =   -5169.25722155 Ry
     Harris-Foulkes estimate   =   -5169.25517359 Ry
     estimated scf accuracy    <       0.00347381 Ry

     total magnetization       =     3.00 Bohr mag/cell
     absolute magnetization    =     3.14 Bohr mag/cell

     iteration #  9     ecut=    75.00 Ry     beta= 0.70
     Davidson diagonalization with overlap
     ethr =  2.36E-06,  avg # of iterations =  7.0

     total cpu time spent up to now is     1157.1 secs

     total energy              =   -5169.25948867 Ry
     Harris-Foulkes estimate   =   -5169.25739874 Ry
     estimated scf accuracy    <       0.00171210 Ry

     total magnetization       =     3.00 Bohr mag/cell
     absolute magnetization    =     3.14 Bohr mag/cell

     iteration # 10     ecut=    75.00 Ry     beta= 0.70
     Davidson diagonalization with overlap
     ethr =  1.16E-06,  avg # of iterations =  9.5

     total cpu time spent up to now is     1277.9 secs

     total energy              =   -5169.26009203 Ry
     Harris-Foulkes estimate   =   -5169.25955547 Ry
     estimated scf accuracy    <       0.00088829 Ry

     total magnetization       =     3.00 Bohr mag/cell
     absolute magnetization    =     3.14 Bohr mag/cell

     iteration # 11     ecut=    75.00 Ry     beta= 0.70
     Davidson diagonalization with overlap
     ethr =  6.04E-07,  avg # of iterations =  7.5

     total cpu time spent up to now is     1396.7 secs

     total energy              =   -5169.26058939 Ry
     Harris-Foulkes estimate   =   -5169.26013401 Ry
     estimated scf accuracy    <       0.00051927 Ry

     total magnetization       =     3.00 Bohr mag/cell
     absolute magnetization    =     3.14 Bohr mag/cell

     iteration # 12     ecut=    75.00 Ry     beta= 0.70
     Davidson diagonalization with overlap
     ethr =  3.53E-07,  avg # of iterations =  6.5

     total cpu time spent up to now is     1514.3 secs

     total energy              =   -5169.26057631 Ry
     Harris-Foulkes estimate   =   -5169.26061312 Ry
     estimated scf accuracy    <       0.00030206 Ry

     total magnetization       =     3.00 Bohr mag/cell
     absolute magnetization    =     3.14 Bohr mag/cell

     iteration # 13     ecut=    75.00 Ry     beta= 0.70
     Davidson diagonalization with overlap
     ethr =  2.05E-07,  avg # of iterations =  9.0

     total cpu time spent up to now is     1636.7 secs

     total energy              =   -5169.26057265 Ry
     Harris-Foulkes estimate   =   -5169.26059509 Ry
     estimated scf accuracy    <       0.00010149 Ry

     total magnetization       =     3.00 Bohr mag/cell
     absolute magnetization    =     3.14 Bohr mag/cell

     iteration # 14     ecut=    75.00 Ry     beta= 0.70
     Davidson diagonalization with overlap
     ethr =  6.90E-08,  avg # of iterations =  5.0

     total cpu time spent up to now is     1752.2 secs

     total energy              =   -5169.26071895 Ry
     Harris-Foulkes estimate   =   -5169.26057504 Ry
     estimated scf accuracy    <       0.00004558 Ry

     total magnetization       =     3.00 Bohr mag/cell
     absolute magnetization    =     3.14 Bohr mag/cell

     iteration # 15     ecut=    75.00 Ry     beta= 0.70
     Davidson diagonalization with overlap
     ethr =  3.10E-08,  avg # of iterations =  8.5

     total cpu time spent up to now is     1872.6 secs

     total energy              =   -5169.26076747 Ry
     Harris-Foulkes estimate   =   -5169.26072305 Ry
     estimated scf accuracy    <       0.00001388 Ry

     total magnetization       =     3.00 Bohr mag/cell
     absolute magnetization    =     3.14 Bohr mag/cell

     iteration # 16     ecut=    75.00 Ry     beta= 0.70
     Davidson diagonalization with overlap
     ethr =  9.44E-09,  avg # of iterations =  2.5

     total cpu time spent up to now is     1987.2 secs

     total energy              =   -5169.26077854 Ry
     Harris-Foulkes estimate   =   -5169.26076800 Ry
     estimated scf accuracy    <       0.00000726 Ry

     total magnetization       =     3.00 Bohr mag/cell
     absolute magnetization    =     3.14 Bohr mag/cell

     iteration # 17     ecut=    75.00 Ry     beta= 0.70
     Davidson diagonalization with overlap
     ethr =  4.94E-09,  avg # of iterations =  8.5

     total cpu time spent up to now is     2104.3 secs

     total energy              =   -5169.26078501 Ry
     Harris-Foulkes estimate   =   -5169.26077918 Ry
     estimated scf accuracy    <       0.00000204 Ry

     total magnetization       =     3.00 Bohr mag/cell
     absolute magnetization    =     3.14 Bohr mag/cell

     iteration # 18     ecut=    75.00 Ry     beta= 0.70
     Davidson diagonalization with overlap
     ethr =  1.39E-09,  avg # of iterations =  2.0

     total cpu time spent up to now is     2222.0 secs

     total energy              =   -5169.26079085 Ry
     Harris-Foulkes estimate   =   -5169.26078506 Ry
     estimated scf accuracy    <       0.00000078 Ry

     total magnetization       =     3.00 Bohr mag/cell
     absolute magnetization    =     3.14 Bohr mag/cell

     iteration # 19     ecut=    75.00 Ry     beta= 0.70
     Davidson diagonalization with overlap
     ethr =  5.32E-10,  avg # of iterations =  4.0

     total cpu time spent up to now is     2336.1 secs

     total energy              =   -5169.26079124 Ry
     Harris-Foulkes estimate   =   -5169.26079095 Ry
     estimated scf accuracy    <       0.00000019 Ry

     total magnetization       =     3.00 Bohr mag/cell
     absolute magnetization    =     3.14 Bohr mag/cell

     iteration # 20     ecut=    75.00 Ry     beta= 0.70
     Davidson diagonalization with overlap
     ethr =  1.28E-10,  avg # of iterations =  4.0

     total cpu time spent up to now is     2452.4 secs

     total energy              =   -5169.26079090 Ry
     Harris-Foulkes estimate   =   -5169.26079127 Ry
     estimated scf accuracy    <       0.00000007 Ry

     total magnetization       =     3.00 Bohr mag/cell
     absolute magnetization    =     3.14 Bohr mag/cell

     iteration # 21     ecut=    75.00 Ry     beta= 0.70
     Davidson diagonalization with overlap
     ethr =  4.75E-11,  avg # of iterations =  3.5

     total cpu time spent up to now is     2568.7 secs

     total energy              =   -5169.26079080 Ry
     Harris-Foulkes estimate   =   -5169.26079090 Ry
     estimated scf accuracy    <       0.00000002 Ry

     total magnetization       =     3.00 Bohr mag/cell
     absolute magnetization    =     3.14 Bohr mag/cell

     iteration # 22     ecut=    75.00 Ry     beta= 0.70
     Davidson diagonalization with overlap
     ethr =  1.45E-11,  avg # of iterations =  3.5
 
     Magnetic moment per site:
     atom:    1    charge:    9.2279    magn:    0.0512    constr:    0.0000
     atom:    2    charge:    9.2282    magn:    0.0703    constr:    0.0000
     atom:    3    charge:    9.2282    magn:    0.0703    constr:    0.0000
     atom:    4    charge:    9.2282    magn:    0.0703    constr:    0.0000
     atom:    5    charge:    9.2278    magn:    0.0511    constr:    0.0000
     atom:    6    charge:    9.2283    magn:    0.0703    constr:    0.0000
     atom:    7    charge:    9.2309    magn:    0.0280    constr:    0.0000
     atom:    8    charge:    9.3243    magn:    0.1107    constr:    0.0000
     atom:    9    charge:    9.2282    magn:    0.0703    constr:    0.0000
     atom:   10    charge:   12.6161    magn:    0.1156    constr:    0.0000
     atom:   11    charge:    9.2277    magn:    0.0511    constr:    0.0000
     atom:   12    charge:    9.2278    magn:    0.0512    constr:    0.0000
     atom:   13    charge:    9.2277    magn:    0.0511    constr:    0.0000

     total cpu time spent up to now is     2679.4 secs

     End of self-consistent calculation

 ------ SPIN UP ------------


          k = 0.0000 0.0000 0.0000 (148230 PWs)   bands (ev):

   -25.6049 -25.5817 -25.5816 -25.4919 -25.4919 -13.7455  -9.1681  -8.8598
    -8.8597  -8.8172  -8.8171  -8.7432  -7.9396  -7.9393  -7.8243  -7.8242
    -7.8009  -7.7782  -7.6958  -7.6958  -7.6810  -7.6810  -7.6277  -7.6275
    -7.5572  -7.5571  -7.4549  -7.4547  -7.4329  -7.4102  -7.3257  -7.3257
    -7.2919  -7.2915  -7.0236  -7.0113  -7.0049  -7.0046  -6.9916  -6.9912
    -6.9631  -6.9628  -6.7768  -6.7400  -6.7398  -6.5950  -6.5949  -6.4734
    -6.4732  -6.4556  -6.4555  -6.3780  -6.3390  -6.3390  -6.3346  -6.3343
    -6.3011  -6.2975  -6.2975  -6.2182  -6.2071  -6.2071  -6.1769  -6.1768
    -6.1357  -6.1356  -6.0664  -5.5310  -5.5308  -4.8920  -3.9097  -3.9096
    -3.1883  -3.1878  -3.1050  -2.0894  -1.8116  -1.8114  -1.5601  -1.1135
    -1.1121  -0.7796  -0.7776  -0.7100  -0.7091   0.1862   0.4059   0.4062
     0.4497

     occupation numbers 
     1.0000   1.0000   1.0000   1.0000   1.0000   1.0000   1.0000   1.0000
     1.0000   1.0000   1.0000   1.0000   1.0000   1.0000   1.0000   1.0000
     1.0000   1.0000   1.0000   1.0000   1.0000   1.0000   1.0000   1.0000
     1.0000   1.0000   1.0000   1.0000   1.0000   1.0000   1.0000   1.0000
     1.0000   1.0000   1.0000   1.0000   1.0000   1.0000   1.0000   1.0000
     1.0000   1.0000   1.0000   1.0000   1.0000   1.0000   1.0000   1.0000
     1.0000   1.0000   1.0000   1.0000   1.0000   1.0000   1.0000   1.0000
     1.0000   1.0000   1.0000   1.0000   1.0000   1.0000   1.0000   1.0000
     1.0000   1.0000   1.0000   1.0000   1.0000   1.0000   1.0000   1.0000
     1.0000   1.0000   1.0000   0.0000   0.0000   0.0000   0.0000   0.0000
     0.0000   0.0000   0.0000   0.0000   0.0000   0.0000   0.0000   0.0000
     0.0000

 ------ SPIN DOWN ----------


          k = 0.0000 0.0000 0.0000 (148230 PWs)   bands (ev):

   -25.5450 -25.5391 -25.5391 -25.4881 -25.4881 -13.5937  -9.1158  -8.7858
    -8.7857  -8.7742  -8.7741  -8.6744  -7.8821  -7.8819  -7.7651  -7.7649
    -7.7105  -7.6788  -7.6422  -7.6422  -7.6319  -7.6318  -7.5550  -7.5549
    -7.4943  -7.4941  -7.3863  -7.3677  -7.3675  -7.2894  -7.2616  -7.2615
    -7.2208  -7.2204  -6.9731  -6.9569  -6.9566  -6.9562  -6.9409  -6.9405
    -6.9168  -6.9165  -6.7049  -6.6770  -6.6769  -6.5293  -6.5292  -6.4228
    -6.4226  -6.4086  -6.4086  -6.3061  -6.2933  -6.2932  -6.2896  -6.2893
    -6.2491  -6.2491  -6.2409  -6.1626  -6.1577  -6.1577  -6.1183  -6.1182
    -6.0731  -6.0729  -6.0339  -5.3640  -5.3638  -4.7735  -3.7821  -3.7821
    -2.8618  -2.8613  -2.7623  -1.9478  -1.6223  -1.6222  -1.3310  -0.8778
    -0.8767  -0.5008  -0.5006  -0.4584  -0.4557   0.3315   0.5550   0.6255
     0.6288

     occupation numbers 
     1.0000   1.0000   1.0000   1.0000   1.0000   1.0000   1.0000   1.0000
     1.0000   1.0000   1.0000   1.0000   1.0000   1.0000   1.0000   1.0000
     1.0000   1.0000   1.0000   1.0000   1.0000   1.0000   1.0000   1.0000
     1.0000   1.0000   1.0000   1.0000   1.0000   1.0000   1.0000   1.0000
     1.0000   1.0000   1.0000   1.0000   1.0000   1.0000   1.0000   1.0000
     1.0000   1.0000   1.0000   1.0000   1.0000   1.0000   1.0000   1.0000
     1.0000   1.0000   1.0000   1.0000   1.0000   1.0000   1.0000   1.0000
     1.0000   1.0000   1.0000   1.0000   1.0000   1.0000   1.0000   1.0000
     1.0000   1.0000   1.0000   1.0000   1.0000   1.0000   1.0000   1.0000
     0.0000   0.0000   0.0000   0.0000   0.0000   0.0000   0.0000   0.0000
     0.0000   0.0000   0.0000   0.0000   0.0000   0.0000   0.0000   0.0000
     0.0000

     the Fermi energy is    -2.9866 ev

!    total energy              =   -5169.26079078 Ry
     Harris-Foulkes estimate   =   -5169.26079080 Ry
     estimated scf accuracy    <          8.2E-09 Ry

     total all-electron energy =   -170648.311452 Ry

     The total energy is the sum of the following terms:

     one-electron contribution =   -3777.07568102 Ry
     hartree contribution      =    1984.35637462 Ry
     xc contribution           =    -459.87942513 Ry
     ewald contribution        =     989.86282878 Ry
     one-center paw contrib.   =   -3906.52488796 Ry
      -> PAW hartree energy AE =      66.87963257 Ry
      -> PAW hartree energy PS =     -66.73211169 Ry
      -> PAW xc energy AE      =    -297.86713653 Ry
      -> PAW xc energy PS      =      35.22469745 Ry
      -> total E_H with PAW    =    1984.50389551 Ry
      -> total E_XC with PAW   =    -722.52186420 Ry
     smearing contrib. (-TS)   =      -0.00000008 Ry

     total magnetization       =     3.00 Bohr mag/cell
     absolute magnetization    =     3.14 Bohr mag/cell

     convergence has been achieved in  22 iterations

     Writing output data file ./tmp/ag12Bic.save/
 
     init_run     :     65.27s CPU     68.09s WALL (       1 calls)
     electrons    :   2508.59s CPU   2608.39s WALL (       1 calls)

     Called by init_run:
     wfcinit      :     15.48s CPU     15.69s WALL (       1 calls)
     wfcinit:atom :      0.09s CPU      0.12s WALL (       2 calls)
     wfcinit:wfcr :     15.17s CPU     15.29s WALL (       2 calls)
     potinit      :     12.90s CPU     13.45s WALL (       1 calls)
     hinit0       :      4.99s CPU      5.15s WALL (       1 calls)

     Called by electrons:
     c_bands      :    699.55s CPU    708.00s WALL (      22 calls)
     sum_band     :   1070.23s CPU   1115.04s WALL (      22 calls)
     v_of_rho     :    203.04s CPU    209.06s WALL (      23 calls)
     v_h          :     13.06s CPU     13.36s WALL (      23 calls)
     v_xc         :    189.98s CPU    195.70s WALL (      23 calls)
     newd         :    399.01s CPU    438.56s WALL (      23 calls)
     PAW_pot      :     30.05s CPU     30.30s WALL (      23 calls)
     mix_rho      :    101.48s CPU    103.23s WALL (      22 calls)

     Called by c_bands:
     init_us_2    :      3.61s CPU      3.70s WALL (      90 calls)
     regterg      :    681.39s CPU    689.64s WALL (      44 calls)

     Called by sum_band:
     sum_band:bec :      0.02s CPU      0.03s WALL (      44 calls)
     addusdens    :    892.32s CPU    936.22s WALL (      22 calls)

     Called by *egterg:
     h_psi        :    569.38s CPU    572.25s WALL (     305 calls)
     s_psi        :     31.45s CPU     31.51s WALL (     305 calls)
     g_psi        :      0.99s CPU      0.99s WALL (     259 calls)
     rdiaghg      :      8.33s CPU      8.82s WALL (     303 calls)
     regterg:over :     31.84s CPU     31.91s WALL (     259 calls)
     regterg:upda :     28.78s CPU     29.16s WALL (     259 calls)
     regterg:last :      8.08s CPU      8.12s WALL (      44 calls)
     rdiaghg:chol :      0.29s CPU      0.30s WALL (     303 calls)
     rdiaghg:inve :      0.23s CPU      0.24s WALL (     303 calls)
     rdiaghg:para :      0.71s CPU      0.71s WALL (     606 calls)

     Called by h_psi:
     h_psi:calbec :     25.76s CPU     25.92s WALL (     305 calls)
     vloc_psi     :    508.99s CPU    511.60s WALL (     305 calls)
     add_vuspsi   :     32.44s CPU     32.54s WALL (     305 calls)

     General routines
     calbec       :     33.37s CPU     33.55s WALL (     349 calls)
     fft          :    207.04s CPU    208.43s WALL (     476 calls)
     ffts         :     46.22s CPU     46.60s WALL (     551 calls)
     fftw         :    403.79s CPU    405.86s WALL (   11314 calls)
     interpolate  :     26.78s CPU     26.97s WALL (      46 calls)
 
     Parallel routines
     fft_scatt_xy :     99.91s CPU    100.39s WALL (   12341 calls)
     fft_scatt_yz :    204.57s CPU    205.95s WALL (   12341 calls)

     PAW routines
     PAW_pot      :     30.05s CPU     30.30s WALL (      23 calls)
 
     PWSCF        :  42m58.64s CPU  44m43.32s WALL

 
   This run was terminated on:   0:30:22   6Jun2020            

=------------------------------------------------------------------------------=
   JOB DONE.
=------------------------------------------------------------------------------=
