
     Program PWSCF v.6.5 starts on  4Jan2021 at  3:10:57 

     This program is part of the open-source Quantum ESPRESSO suite
     for quantum simulation of materials; please cite
         "P. Giannozzi et al., J. Phys.:Condens. Matter 21 395502 (2009);
         "P. Giannozzi et al., J. Phys.:Condens. Matter 29 465901 (2017);
          URL http://www.quantum-espresso.org", 
     in publications or presentations arising from this work. More details at
     http://www.quantum-espresso.org/quote

     Parallel version (MPI & OpenMP), running on      24 processor cores
     Number of MPI processes:                24
     Threads/MPI process:                     1

     MPI processes distributed on     1 nodes
     R & G space division:  proc/nbgrp/npool/nimage =      24
     Waiting for input...
     Reading input from standard input

     Current dimensions of program PWSCF are:
     Max number of different atomic species (ntypx) = 10
     Max number of k-points (npk) =  40000
     Max angular momentum in pseudopotentials (lmaxx) =  3
               file Ag.pbe-dn-kjpaw_psl.0.1.UPF: wavefunction(s)  5S 5P 4D renormalized
               file Bi.pbe-dn-kjpaw_psl.1.0.0.UPF: wavefunction(s)  6P 5D renormalized

     gamma-point specific algorithms are used

     Subspace diagonalization in iterative solution of the eigenvalue problem:
     one sub-group per band group will be used
     scalapack distributed-memory algorithm (size of sub-group:  4*  4 procs)

 
     Parallelization info
     --------------------
     sticks:   dense  smooth     PW     G-vecs:    dense   smooth      PW
     Min        2148     953    237               367032   108738   13581
     Max        2150     956    240               367046   108748   13592
     Sum       51577   22901   5721              8808945  2609847  326029
 


     bravais-lattice index     =            1
     lattice parameter (alat)  =      30.0000  a.u.
     unit-cell volume          =   27000.0000 (a.u.)^3
     number of atoms/cell      =           13
     number of atomic types    =            2
     number of electrons       =       147.00
     number of Kohn-Sham states=           89
     kinetic-energy cutoff     =      80.0000  Ry
     charge density cutoff     =     720.0000  Ry
     convergence threshold     =      1.0E-08
     mixing beta               =       0.7000
     number of iterations used =            8  local-TF  mixing
     Exchange-correlation= SLA PW PBX PBC
                           (   1   4   3   4   0   0   0)

     celldm(1)=  30.000000  celldm(2)=   0.000000  celldm(3)=   0.000000
     celldm(4)=   0.000000  celldm(5)=   0.000000  celldm(6)=   0.000000

     crystal axes: (cart. coord. in units of alat)
               a(1) = (   1.000000   0.000000   0.000000 )  
               a(2) = (   0.000000   1.000000   0.000000 )  
               a(3) = (   0.000000   0.000000   1.000000 )  

     reciprocal axes: (cart. coord. in units 2 pi/alat)
               b(1) = (  1.000000  0.000000  0.000000 )  
               b(2) = (  0.000000  1.000000  0.000000 )  
               b(3) = (  0.000000  0.000000  1.000000 )  


     PseudoPot. # 1 for Ag read from file:
     ../../pseudo/Ag.pbe-dn-kjpaw_psl.0.1.UPF
     MD5 check sum: 2edc915f30f03476250949c796a6a376
     Pseudo is Projector augmented-wave + core cor, Zval = 11.0
     Generated using "atomic" code by A. Dal Corso v.5.0.2 svn rev. 9415
     Shape of augmentation charge: PSQ
     Using radial grid of 1237 points,  6 beta functions with: 
                l(1) =   0
                l(2) =   0
                l(3) =   1
                l(4) =   1
                l(5) =   2
                l(6) =   2
     Q(r) pseudized with 0 coefficients 


     PseudoPot. # 2 for Bi read from file:
     ../../pseudo/Bi.pbe-dn-kjpaw_psl.1.0.0.UPF
     MD5 check sum: 266ded784ae3bc462508ed03f0f37963
     Pseudo is Projector augmented-wave + core cor, Zval = 15.0
     Generated using "atomic" code by A. Dal Corso v.6.2.2
     Shape of augmentation charge: PSQ
     Using radial grid of 1283 points,  6 beta functions with: 
                l(1) =   0
                l(2) =   0
                l(3) =   1
                l(4) =   1
                l(5) =   2
                l(6) =   2
     Q(r) pseudized with 0 coefficients 


     atomic species   valence    mass     pseudopotential
        Ag            11.00   107.87000     Ag( 1.00)
        Bi            15.00   208.98000     Bi( 1.00)

     Starting magnetic structure 
     atomic species   magnetization
        Ag           0.700
        Bi           0.000

     No symmetry found


                                    s                        frac. trans.

      isym =  1     identity                                     

 cryst.   s( 1) = (     1          0          0      )
                  (     0          1          0      )
                  (     0          0          1      )

 cart.    s( 1) = (  1.0000000  0.0000000  0.0000000 )
                  (  0.0000000  1.0000000  0.0000000 )
                  (  0.0000000  0.0000000  1.0000000 )


     point group C_1 (1)    
     there are  1 classes
     the character table:

       E    
A      1.00

     the symmetry operations in each class and the name of the first element:

     E        1
          identity                                               

   Cartesian axes

     site n.     atom                  positions (alat units)
         1           Ag  tau(   1) = (   0.1482164   0.1449496   0.2853705  )
         2           Ag  tau(   2) = (   0.1794160   0.3113257   0.3563652  )
         3           Ag  tau(   3) = (   0.4315329   0.2203186   0.2297755  )
         4           Ag  tau(   4) = (   0.3104401   0.1833726   0.3621717  )
         5           Ag  tau(   5) = (   0.3479443   0.2058768   0.0669794  )
         6           Ag  tau(   6) = (   0.3753741   0.3710792   0.1421455  )
         7           Ag  tau(   7) = (   0.1713498   0.1603092   0.1017503  )
         8           Ag  tau(   8) = (   0.2598156   0.2557977   0.2093519  )
         9           Ag  tau(   9) = (   0.2195484   0.4273174   0.2203687  )
        10           Bi  tau(  10) = (   0.3601669   0.3641017   0.3313630  )
        11           Ag  tau(  11) = (   0.0909362   0.2985977   0.1960131  )
        12           Ag  tau(  12) = (   0.2144206   0.3363141   0.0610748  )
        13           Ag  tau(  13) = (   0.3070306   0.0876049   0.2056120  )

   Crystallographic axes

     site n.     atom                  positions (cryst. coord.)
         1           Ag  tau(   1) = (  0.1482164  0.1449496  0.2853705  )
         2           Ag  tau(   2) = (  0.1794160  0.3113257  0.3563652  )
         3           Ag  tau(   3) = (  0.4315329  0.2203186  0.2297755  )
         4           Ag  tau(   4) = (  0.3104401  0.1833726  0.3621717  )
         5           Ag  tau(   5) = (  0.3479443  0.2058768  0.0669794  )
         6           Ag  tau(   6) = (  0.3753741  0.3710792  0.1421455  )
         7           Ag  tau(   7) = (  0.1713498  0.1603092  0.1017503  )
         8           Ag  tau(   8) = (  0.2598156  0.2557977  0.2093519  )
         9           Ag  tau(   9) = (  0.2195484  0.4273174  0.2203687  )
        10           Bi  tau(  10) = (  0.3601669  0.3641017  0.3313630  )
        11           Ag  tau(  11) = (  0.0909362  0.2985977  0.1960131  )
        12           Ag  tau(  12) = (  0.2144206  0.3363141  0.0610748  )
        13           Ag  tau(  13) = (  0.3070306  0.0876049  0.2056120  )

     number of k points=     1  Fermi-Dirac smearing, width (Ry)=  0.0007
                       cart. coord. in units 2pi/alat
        k(    1) = (   0.0000000   0.0000000   0.0000000), wk =   1.0000000

                       cryst. coord.
        k(    1) = (   0.0000000   0.0000000   0.0000000), wk =   1.0000000

     Dense  grid:  4404473 G-vectors     FFT dimensions: ( 270, 270, 270)

     Smooth grid:  1304924 G-vectors     FFT dimensions: ( 180, 180, 180)

     Dynamical RAM for                 wfc:       9.23 MB

     Dynamical RAM for     wfc (w. buffer):      27.69 MB

     Dynamical RAM for           str. fact:       5.60 MB

     Dynamical RAM for           local pot:       0.00 MB

     Dynamical RAM for          nlocal pot:      24.27 MB

     Dynamical RAM for                qrad:      20.53 MB

     Dynamical RAM for          rho,v,vnew:      56.85 MB

     Dynamical RAM for               rhoin:      18.95 MB

     Dynamical RAM for            rho*nmix:      89.61 MB

     Dynamical RAM for           G-vectors:      10.92 MB

     Dynamical RAM for          h,s,v(r/c):       0.18 MB

     Dynamical RAM for          <psi|beta>:       0.16 MB

     Dynamical RAM for                 psi:      36.92 MB

     Dynamical RAM for                hpsi:      36.92 MB

     Dynamical RAM for                spsi:      36.92 MB

     Dynamical RAM for      wfcinit/wfcrot:      24.58 MB

     Dynamical RAM for           addusdens:     557.25 MB

     Estimated static dynamical RAM per process >     302.85 MB

     Estimated max dynamical RAM per process >     860.10 MB

     Estimated total dynamical RAM >      20.16 GB
     Generating pointlists ...
     new r_m :   0.0697 (alat units)  2.0900 (a.u.) for type    1
     new r_m :   0.0784 (alat units)  2.3506 (a.u.) for type    2

     Initial potential from superposition of free atoms

     starting charge  146.99440, renormalised to  147.00000
     Starting wfcs are  117 randomized atomic wfcs
     Checking if some PAW data can be deallocated... 
       PAW data deallocated on    2 nodes for type:  1
       PAW data deallocated on   22 nodes for type:  2

     total cpu time spent up to now is       57.7 secs

     Self-consistent Calculation

     iteration #  1     ecut=    80.00 Ry     beta= 0.70
     Davidson diagonalization with overlap
     ethr =  1.00E-02,  avg # of iterations =  3.5

     total cpu time spent up to now is      156.1 secs

     total energy              =   -5168.34930993 Ry
     Harris-Foulkes estimate   =   -5162.03920357 Ry
     estimated scf accuracy    <       6.70957441 Ry

     total magnetization       =     5.00 Bohr mag/cell
     absolute magnetization    =     5.46 Bohr mag/cell

     iteration #  2     ecut=    80.00 Ry     beta= 0.70
     Davidson diagonalization with overlap
     ethr =  4.56E-03,  avg # of iterations =  1.0

     total cpu time spent up to now is      250.2 secs

     total energy              =   -5169.20104013 Ry
     Harris-Foulkes estimate   =   -5168.56216259 Ry
     estimated scf accuracy    <       0.93732008 Ry

     total magnetization       =     3.00 Bohr mag/cell
     absolute magnetization    =     3.41 Bohr mag/cell

     iteration #  3     ecut=    80.00 Ry     beta= 0.70
     Davidson diagonalization with overlap
     ethr =  6.38E-04,  avg # of iterations =  2.5

     total cpu time spent up to now is      346.5 secs

     total energy              =   -5169.25358090 Ry
     Harris-Foulkes estimate   =   -5169.26445100 Ry
     estimated scf accuracy    <       0.08018549 Ry

     total magnetization       =     2.98 Bohr mag/cell
     absolute magnetization    =     3.08 Bohr mag/cell

     iteration #  4     ecut=    80.00 Ry     beta= 0.70
     Davidson diagonalization with overlap
     ethr =  5.45E-05,  avg # of iterations = 10.0

     total cpu time spent up to now is      463.9 secs

     total energy              =   -5169.26465452 Ry
     Harris-Foulkes estimate   =   -5169.27205458 Ry
     estimated scf accuracy    <       0.03642923 Ry

     total magnetization       =     3.00 Bohr mag/cell
     absolute magnetization    =     3.10 Bohr mag/cell

     iteration #  5     ecut=    80.00 Ry     beta= 0.70
     Davidson diagonalization with overlap
     ethr =  2.48E-05,  avg # of iterations =  2.0

     total cpu time spent up to now is      559.7 secs

     total energy              =   -5169.25940723 Ry
     Harris-Foulkes estimate   =   -5169.26624490 Ry
     estimated scf accuracy    <       0.02028598 Ry

     total magnetization       =     3.00 Bohr mag/cell
     absolute magnetization    =     3.13 Bohr mag/cell

     iteration #  6     ecut=    80.00 Ry     beta= 0.70
     Davidson diagonalization with overlap
     ethr =  1.38E-05,  avg # of iterations =  9.5

     total cpu time spent up to now is      664.6 secs

     total energy              =   -5169.25764666 Ry
     Harris-Foulkes estimate   =   -5169.26055373 Ry
     estimated scf accuracy    <       0.01088835 Ry

     total magnetization       =     3.00 Bohr mag/cell
     absolute magnetization    =     3.16 Bohr mag/cell

     iteration #  7     ecut=    80.00 Ry     beta= 0.70
     Davidson diagonalization with overlap
     ethr =  7.41E-06,  avg # of iterations =  7.5

     total cpu time spent up to now is      768.6 secs

     total energy              =   -5169.25587912 Ry
     Harris-Foulkes estimate   =   -5169.25822986 Ry
     estimated scf accuracy    <       0.00558799 Ry

     total magnetization       =     3.00 Bohr mag/cell
     absolute magnetization    =     3.15 Bohr mag/cell

     iteration #  8     ecut=    80.00 Ry     beta= 0.70
     Davidson diagonalization with overlap
     ethr =  3.80E-06,  avg # of iterations = 10.5

     total cpu time spent up to now is      875.6 secs

     total energy              =   -5169.25775070 Ry
     Harris-Foulkes estimate   =   -5169.25610643 Ry
     estimated scf accuracy    <       0.00348124 Ry

     total magnetization       =     3.00 Bohr mag/cell
     absolute magnetization    =     3.15 Bohr mag/cell

     iteration #  9     ecut=    80.00 Ry     beta= 0.70
     Davidson diagonalization with overlap
     ethr =  2.37E-06,  avg # of iterations =  6.5

     total cpu time spent up to now is      979.4 secs

     total energy              =   -5169.26004164 Ry
     Harris-Foulkes estimate   =   -5169.25790899 Ry
     estimated scf accuracy    <       0.00180471 Ry

     total magnetization       =     3.00 Bohr mag/cell
     absolute magnetization    =     3.15 Bohr mag/cell

     iteration # 10     ecut=    80.00 Ry     beta= 0.70
     Davidson diagonalization with overlap
     ethr =  1.23E-06,  avg # of iterations =  6.0

     total cpu time spent up to now is     1082.8 secs

     total energy              =   -5169.26056758 Ry
     Harris-Foulkes estimate   =   -5169.26011677 Ry
     estimated scf accuracy    <       0.00089451 Ry

     total magnetization       =     3.00 Bohr mag/cell
     absolute magnetization    =     3.14 Bohr mag/cell

     iteration # 11     ecut=    80.00 Ry     beta= 0.70
     Davidson diagonalization with overlap
     ethr =  6.09E-07,  avg # of iterations =  9.0

     total cpu time spent up to now is     1186.9 secs

     total energy              =   -5169.26094058 Ry
     Harris-Foulkes estimate   =   -5169.26061150 Ry
     estimated scf accuracy    <       0.00051675 Ry

     total magnetization       =     3.00 Bohr mag/cell
     absolute magnetization    =     3.14 Bohr mag/cell

     iteration # 12     ecut=    80.00 Ry     beta= 0.70
     Davidson diagonalization with overlap
     ethr =  3.52E-07,  avg # of iterations =  5.5

     total cpu time spent up to now is     1286.1 secs

     total energy              =   -5169.26092524 Ry
     Harris-Foulkes estimate   =   -5169.26095874 Ry
     estimated scf accuracy    <       0.00031342 Ry

     total magnetization       =     3.00 Bohr mag/cell
     absolute magnetization    =     3.14 Bohr mag/cell

     iteration # 13     ecut=    80.00 Ry     beta= 0.70
     Davidson diagonalization with overlap
     ethr =  2.13E-07,  avg # of iterations =  9.5

     total cpu time spent up to now is     1392.4 secs

     total energy              =   -5169.26088134 Ry
     Harris-Foulkes estimate   =   -5169.26094491 Ry
     estimated scf accuracy    <       0.00011209 Ry

     total magnetization       =     3.00 Bohr mag/cell
     absolute magnetization    =     3.14 Bohr mag/cell

     iteration # 14     ecut=    80.00 Ry     beta= 0.70
     Davidson diagonalization with overlap
     ethr =  7.63E-08,  avg # of iterations =  6.0

     total cpu time spent up to now is     1491.4 secs

     total energy              =   -5169.26098815 Ry
     Harris-Foulkes estimate   =   -5169.26088448 Ry
     estimated scf accuracy    <       0.00005168 Ry

     total magnetization       =     3.00 Bohr mag/cell
     absolute magnetization    =     3.14 Bohr mag/cell

     iteration # 15     ecut=    80.00 Ry     beta= 0.70
     Davidson diagonalization with overlap
     ethr =  3.52E-08,  avg # of iterations =  9.0

     total cpu time spent up to now is     1596.6 secs

     total energy              =   -5169.26104061 Ry
     Harris-Foulkes estimate   =   -5169.26099210 Ry
     estimated scf accuracy    <       0.00001596 Ry

     total magnetization       =     3.00 Bohr mag/cell
     absolute magnetization    =     3.14 Bohr mag/cell

     iteration # 16     ecut=    80.00 Ry     beta= 0.70
     Davidson diagonalization with overlap
     ethr =  1.09E-08,  avg # of iterations =  3.0

     total cpu time spent up to now is     1693.6 secs

     total energy              =   -5169.26105891 Ry
     Harris-Foulkes estimate   =   -5169.26104131 Ry
     estimated scf accuracy    <       0.00000879 Ry

     total magnetization       =     3.00 Bohr mag/cell
     absolute magnetization    =     3.14 Bohr mag/cell

     iteration # 17     ecut=    80.00 Ry     beta= 0.70
     Davidson diagonalization with overlap
     ethr =  5.98E-09,  avg # of iterations =  9.0

     total cpu time spent up to now is     1796.6 secs

     total energy              =   -5169.26106441 Ry
     Harris-Foulkes estimate   =   -5169.26105994 Ry
     estimated scf accuracy    <       0.00000249 Ry

     total magnetization       =     3.00 Bohr mag/cell
     absolute magnetization    =     3.14 Bohr mag/cell

     iteration # 18     ecut=    80.00 Ry     beta= 0.70
     Davidson diagonalization with overlap
     ethr =  1.69E-09,  avg # of iterations =  2.5

     total cpu time spent up to now is     1892.5 secs

     total energy              =   -5169.26107267 Ry
     Harris-Foulkes estimate   =   -5169.26106454 Ry
     estimated scf accuracy    <       0.00000083 Ry

     total magnetization       =     3.00 Bohr mag/cell
     absolute magnetization    =     3.14 Bohr mag/cell

     iteration # 19     ecut=    80.00 Ry     beta= 0.70
     Davidson diagonalization with overlap
     ethr =  5.66E-10,  avg # of iterations =  4.0

     total cpu time spent up to now is     1991.3 secs

     total energy              =   -5169.26107409 Ry
     Harris-Foulkes estimate   =   -5169.26107279 Ry
     estimated scf accuracy    <       0.00000026 Ry

     total magnetization       =     3.00 Bohr mag/cell
     absolute magnetization    =     3.14 Bohr mag/cell

     iteration # 20     ecut=    80.00 Ry     beta= 0.70
     Davidson diagonalization with overlap
     ethr =  1.78E-10,  avg # of iterations =  3.0

     total cpu time spent up to now is     2088.0 secs

     total energy              =   -5169.26107438 Ry
     Harris-Foulkes estimate   =   -5169.26107411 Ry
     estimated scf accuracy    <       0.00000010 Ry

     total magnetization       =     3.00 Bohr mag/cell
     absolute magnetization    =     3.14 Bohr mag/cell

     iteration # 21     ecut=    80.00 Ry     beta= 0.70
     Davidson diagonalization with overlap
     ethr =  6.78E-11,  avg # of iterations =  4.5

     total cpu time spent up to now is     2186.8 secs

     total energy              =   -5169.26107451 Ry
     Harris-Foulkes estimate   =   -5169.26107440 Ry
     estimated scf accuracy    <       0.00000003 Ry

     total magnetization       =     3.00 Bohr mag/cell
     absolute magnetization    =     3.14 Bohr mag/cell

     iteration # 22     ecut=    80.00 Ry     beta= 0.70
     Davidson diagonalization with overlap
     ethr =  2.05E-11,  avg # of iterations =  3.5

     total cpu time spent up to now is     2285.1 secs

     total energy              =   -5169.26107458 Ry
     Harris-Foulkes estimate   =   -5169.26107452 Ry
     estimated scf accuracy    <       0.00000001 Ry

     total magnetization       =     3.00 Bohr mag/cell
     absolute magnetization    =     3.14 Bohr mag/cell

     iteration # 23     ecut=    80.00 Ry     beta= 0.70
     Davidson diagonalization with overlap
     ethr =  9.32E-12,  avg # of iterations =  4.0
 
     Magnetic moment per site:
     atom:    1    charge:    9.2277    magn:    0.0512    constr:    0.0000
     atom:    2    charge:    9.2282    magn:    0.0703    constr:    0.0000
     atom:    3    charge:    9.2283    magn:    0.0703    constr:    0.0000
     atom:    4    charge:    9.2283    magn:    0.0703    constr:    0.0000
     atom:    5    charge:    9.2278    magn:    0.0511    constr:    0.0000
     atom:    6    charge:    9.2283    magn:    0.0703    constr:    0.0000
     atom:    7    charge:    9.2309    magn:    0.0280    constr:    0.0000
     atom:    8    charge:    9.3244    magn:    0.1107    constr:    0.0000
     atom:    9    charge:    9.2283    magn:    0.0703    constr:    0.0000
     atom:   10    charge:   12.6162    magn:    0.1156    constr:    0.0000
     atom:   11    charge:    9.2277    magn:    0.0511    constr:    0.0000
     atom:   12    charge:    9.2278    magn:    0.0512    constr:    0.0000
     atom:   13    charge:    9.2277    magn:    0.0511    constr:    0.0000

     total cpu time spent up to now is     2378.6 secs

     End of self-consistent calculation

 ------ SPIN UP ------------


          k = 0.0000 0.0000 0.0000 (163015 PWs)   bands (ev):

   -25.6034 -25.5802 -25.5802 -25.4904 -25.4904 -13.7441  -9.1668  -8.8586
    -8.8585  -8.8160  -8.8158  -8.7419  -7.9384  -7.9381  -7.8231  -7.8230
    -7.7997  -7.7770  -7.6946  -7.6946  -7.6798  -7.6797  -7.6265  -7.6263
    -7.5560  -7.5558  -7.4537  -7.4535  -7.4317  -7.4090  -7.3245  -7.3244
    -7.2907  -7.2903  -7.0224  -7.0101  -7.0037  -7.0034  -6.9904  -6.9900
    -6.9618  -6.9615  -6.7755  -6.7387  -6.7386  -6.5938  -6.5937  -6.4722
    -6.4721  -6.4544  -6.4544  -6.3768  -6.3378  -6.3378  -6.3334  -6.3331
    -6.2999  -6.2964  -6.2963  -6.2171  -6.2059  -6.2059  -6.1757  -6.1755
    -6.1345  -6.1344  -6.0652  -5.5299  -5.5297  -4.8908  -3.9085  -3.9085
    -3.1871  -3.1867  -3.1036  -2.0873  -1.8100  -1.8098  -1.5580  -1.1117
    -1.1103  -0.7774  -0.7755  -0.7056  -0.7047   0.1911   0.4109   0.4115
     0.4697

     occupation numbers 
     1.0000   1.0000   1.0000   1.0000   1.0000   1.0000   1.0000   1.0000
     1.0000   1.0000   1.0000   1.0000   1.0000   1.0000   1.0000   1.0000
     1.0000   1.0000   1.0000   1.0000   1.0000   1.0000   1.0000   1.0000
     1.0000   1.0000   1.0000   1.0000   1.0000   1.0000   1.0000   1.0000
     1.0000   1.0000   1.0000   1.0000   1.0000   1.0000   1.0000   1.0000
     1.0000   1.0000   1.0000   1.0000   1.0000   1.0000   1.0000   1.0000
     1.0000   1.0000   1.0000   1.0000   1.0000   1.0000   1.0000   1.0000
     1.0000   1.0000   1.0000   1.0000   1.0000   1.0000   1.0000   1.0000
     1.0000   1.0000   1.0000   1.0000   1.0000   1.0000   1.0000   1.0000
     1.0000   1.0000   1.0000   0.0000   0.0000   0.0000   0.0000   0.0000
     0.0000   0.0000   0.0000   0.0000   0.0000   0.0000   0.0000   0.0000
     0.0000

 ------ SPIN DOWN ----------


          k = 0.0000 0.0000 0.0000 (163015 PWs)   bands (ev):

   -25.5435 -25.5376 -25.5376 -25.4867 -25.4867 -13.5924  -9.1145  -8.7845
    -8.7844  -8.7729  -8.7728  -8.6731  -7.8809  -7.8806  -7.7638  -7.7637
    -7.7092  -7.6775  -7.6410  -7.6410  -7.6307  -7.6306  -7.5538  -7.5537
    -7.4930  -7.4928  -7.3851  -7.3665  -7.3663  -7.2882  -7.2604  -7.2603
    -7.2195  -7.2192  -6.9719  -6.9557  -6.9554  -6.9549  -6.9396  -6.9392
    -6.9155  -6.9153  -6.7036  -6.6757  -6.6756  -6.5281  -6.5280  -6.4216
    -6.4214  -6.4074  -6.4074  -6.3049  -6.2920  -6.2920  -6.2884  -6.2881
    -6.2479  -6.2479  -6.2396  -6.1614  -6.1565  -6.1565  -6.1171  -6.1169
    -6.0718  -6.0717  -6.0327  -5.3628  -5.3626  -4.7722  -3.7808  -3.7807
    -2.8602  -2.8598  -2.7604  -1.9455  -1.6204  -1.6202  -1.3284  -0.8756
    -0.8746  -0.4956  -0.4953  -0.4553  -0.4527   0.3370   0.5775   0.6321
     0.6349

     occupation numbers 
     1.0000   1.0000   1.0000   1.0000   1.0000   1.0000   1.0000   1.0000
     1.0000   1.0000   1.0000   1.0000   1.0000   1.0000   1.0000   1.0000
     1.0000   1.0000   1.0000   1.0000   1.0000   1.0000   1.0000   1.0000
     1.0000   1.0000   1.0000   1.0000   1.0000   1.0000   1.0000   1.0000
     1.0000   1.0000   1.0000   1.0000   1.0000   1.0000   1.0000   1.0000
     1.0000   1.0000   1.0000   1.0000   1.0000   1.0000   1.0000   1.0000
     1.0000   1.0000   1.0000   1.0000   1.0000   1.0000   1.0000   1.0000
     1.0000   1.0000   1.0000   1.0000   1.0000   1.0000   1.0000   1.0000
     1.0000   1.0000   1.0000   1.0000   1.0000   1.0000   1.0000   1.0000
     0.0000   0.0000   0.0000   0.0000   0.0000   0.0000   0.0000   0.0000
     0.0000   0.0000   0.0000   0.0000   0.0000   0.0000   0.0000   0.0000
     0.0000

     the Fermi energy is    -2.9851 ev

!    total energy              =   -5169.26107483 Ry
     Harris-Foulkes estimate   =   -5169.26107458 Ry
     estimated scf accuracy    <          6.5E-09 Ry

     total all-electron energy =   -170648.311736 Ry

     The total energy is the sum of the following terms:

     one-electron contribution =   -3777.09062536 Ry
     hartree contribution      =    1984.37213734 Ry
     xc contribution           =    -459.87979181 Ry
     ewald contribution        =     989.86276629 Ry
     one-center paw contrib.   =   -3906.52556122 Ry
      -> PAW hartree energy AE =      66.87814503 Ry
      -> PAW hartree energy PS =     -66.73065083 Ry
      -> PAW xc energy AE      =    -297.86705610 Ry
      -> PAW xc energy PS      =      35.22459056 Ry
      -> total E_H with PAW    =    1984.51963154 Ry
      -> total E_XC with PAW   =    -722.52225734 Ry
     smearing contrib. (-TS)   =      -0.00000008 Ry

     total magnetization       =     3.00 Bohr mag/cell
     absolute magnetization    =     3.14 Bohr mag/cell

     convergence has been achieved in  23 iterations

     Writing output data file ./tmp/ag12Bil.save/
 
     init_run     :     51.19s CPU     53.29s WALL (       1 calls)
     electrons    :   2249.37s CPU   2321.62s WALL (       1 calls)

     Called by init_run:
     wfcinit      :     16.73s CPU     16.96s WALL (       1 calls)
     wfcinit:atom :      0.11s CPU      0.14s WALL (       2 calls)
     wfcinit:wfcr :     16.38s CPU     16.51s WALL (       2 calls)
     potinit      :      9.85s CPU     10.33s WALL (       1 calls)
     hinit0       :      3.80s CPU      3.91s WALL (       1 calls)

     Called by electrons:
     c_bands      :    803.34s CPU    812.30s WALL (      23 calls)
     sum_band     :    874.70s CPU    905.95s WALL (      23 calls)
     v_of_rho     :    155.19s CPU    158.61s WALL (      24 calls)
     v_h          :     10.13s CPU     10.21s WALL (      24 calls)
     v_xc         :    145.05s CPU    148.40s WALL (      24 calls)
     newd         :    272.33s CPU    299.03s WALL (      24 calls)
     PAW_pot      :     30.70s CPU     31.05s WALL (      24 calls)
     mix_rho      :    104.64s CPU    106.89s WALL (      23 calls)

     Called by c_bands:
     init_us_2    :      4.26s CPU      4.36s WALL (      94 calls)
     regterg      :    781.90s CPU    790.68s WALL (      46 calls)

     Called by sum_band:
     sum_band:bec :      0.03s CPU      0.03s WALL (      46 calls)
     addusdens    :    695.08s CPU    725.48s WALL (      23 calls)

     Called by *egterg:
     h_psi        :    645.17s CPU    647.63s WALL (     311 calls)
     s_psi        :     43.26s CPU     43.35s WALL (     311 calls)
     g_psi        :      1.16s CPU      1.17s WALL (     263 calls)
     rdiaghg      :      8.19s CPU      8.68s WALL (     309 calls)
     regterg:over :     36.55s CPU     36.63s WALL (     263 calls)
     regterg:upda :     33.91s CPU     34.37s WALL (     263 calls)
     regterg:last :      9.38s CPU      9.41s WALL (      46 calls)
     rdiaghg:chol :      0.29s CPU      0.30s WALL (     309 calls)
     rdiaghg:inve :      0.23s CPU      0.24s WALL (     309 calls)
     rdiaghg:para :      0.71s CPU      0.72s WALL (     618 calls)

     Called by h_psi:
     h_psi:calbec :     28.23s CPU     28.32s WALL (     311 calls)
     vloc_psi     :    570.84s CPU    573.12s WALL (     311 calls)
     add_vuspsi   :     43.51s CPU     43.60s WALL (     311 calls)

     General routines
     calbec       :     36.53s CPU     36.65s WALL (     357 calls)
     fft          :    153.19s CPU    154.41s WALL (     497 calls)
     ffts         :     56.16s CPU     56.44s WALL (     572 calls)
     fftw         :    506.94s CPU    509.05s WALL (   11782 calls)
     interpolate  :     22.82s CPU     23.01s WALL (      48 calls)
 
     Parallel routines
     fft_scatt_xy :    113.85s CPU    114.41s WALL (   12851 calls)
     fft_scatt_yz :    212.20s CPU    213.42s WALL (   12851 calls)

     PAW routines
     PAW_pot      :     30.70s CPU     31.05s WALL (      24 calls)
 
     PWSCF        :  38m25.59s CPU  39m41.42s WALL

 
   This run was terminated on:   3:50:38   4Jan2021            

=------------------------------------------------------------------------------=
   JOB DONE.
=------------------------------------------------------------------------------=
