
     Program PWSCF v.6.5 starts on  4Jan2021 at  9:46:12 

     This program is part of the open-source Quantum ESPRESSO suite
     for quantum simulation of materials; please cite
         "P. Giannozzi et al., J. Phys.:Condens. Matter 21 395502 (2009);
         "P. Giannozzi et al., J. Phys.:Condens. Matter 29 465901 (2017);
          URL http://www.quantum-espresso.org", 
     in publications or presentations arising from this work. More details at
     http://www.quantum-espresso.org/quote

     Parallel version (MPI & OpenMP), running on      24 processor cores
     Number of MPI processes:                24
     Threads/MPI process:                     1

     MPI processes distributed on     1 nodes
     R & G space division:  proc/nbgrp/npool/nimage =      24
     Waiting for input...
     Reading input from standard input

     Current dimensions of program PWSCF are:
     Max number of different atomic species (ntypx) = 10
     Max number of k-points (npk) =  40000
     Max angular momentum in pseudopotentials (lmaxx) =  3
               file Ag.pbe-dn-kjpaw_psl.0.1.UPF: wavefunction(s)  5S 5P 4D renormalized
               file Bi.pbe-dn-kjpaw_psl.1.0.0.UPF: wavefunction(s)  6P 5D renormalized

     gamma-point specific algorithms are used

     Subspace diagonalization in iterative solution of the eigenvalue problem:
     one sub-group per band group will be used
     scalapack distributed-memory algorithm (size of sub-group:  4*  4 procs)

 
     Parallelization info
     --------------------
     sticks:   dense  smooth     PW     G-vecs:    dense   smooth      PW
     Min        1192     953    237               151980   108738   13581
     Max        1195     956    240               151990   108748   13592
     Sum       28649   22901   5721              3647655  2609847  326029
 


     bravais-lattice index     =            1
     lattice parameter (alat)  =      30.0000  a.u.
     unit-cell volume          =   27000.0000 (a.u.)^3
     number of atoms/cell      =           13
     number of atomic types    =            2
     number of electrons       =       147.00
     number of Kohn-Sham states=           89
     kinetic-energy cutoff     =      80.0000  Ry
     charge density cutoff     =     400.0000  Ry
     convergence threshold     =      1.0E-08
     mixing beta               =       0.7000
     number of iterations used =            8  local-TF  mixing
     Exchange-correlation= SLA PW PBX PBC
                           (   1   4   3   4   0   0   0)

     celldm(1)=  30.000000  celldm(2)=   0.000000  celldm(3)=   0.000000
     celldm(4)=   0.000000  celldm(5)=   0.000000  celldm(6)=   0.000000

     crystal axes: (cart. coord. in units of alat)
               a(1) = (   1.000000   0.000000   0.000000 )  
               a(2) = (   0.000000   1.000000   0.000000 )  
               a(3) = (   0.000000   0.000000   1.000000 )  

     reciprocal axes: (cart. coord. in units 2 pi/alat)
               b(1) = (  1.000000  0.000000  0.000000 )  
               b(2) = (  0.000000  1.000000  0.000000 )  
               b(3) = (  0.000000  0.000000  1.000000 )  


     PseudoPot. # 1 for Ag read from file:
     ../../pseudo/Ag.pbe-dn-kjpaw_psl.0.1.UPF
     MD5 check sum: 2edc915f30f03476250949c796a6a376
     Pseudo is Projector augmented-wave + core cor, Zval = 11.0
     Generated using "atomic" code by A. Dal Corso v.5.0.2 svn rev. 9415
     Shape of augmentation charge: PSQ
     Using radial grid of 1237 points,  6 beta functions with: 
                l(1) =   0
                l(2) =   0
                l(3) =   1
                l(4) =   1
                l(5) =   2
                l(6) =   2
     Q(r) pseudized with 0 coefficients 


     PseudoPot. # 2 for Bi read from file:
     ../../pseudo/Bi.pbe-dn-kjpaw_psl.1.0.0.UPF
     MD5 check sum: 266ded784ae3bc462508ed03f0f37963
     Pseudo is Projector augmented-wave + core cor, Zval = 15.0
     Generated using "atomic" code by A. Dal Corso v.6.2.2
     Shape of augmentation charge: PSQ
     Using radial grid of 1283 points,  6 beta functions with: 
                l(1) =   0
                l(2) =   0
                l(3) =   1
                l(4) =   1
                l(5) =   2
                l(6) =   2
     Q(r) pseudized with 0 coefficients 


     atomic species   valence    mass     pseudopotential
        Ag            11.00   107.87000     Ag( 1.00)
        Bi            15.00   208.98000     Bi( 1.00)

     Starting magnetic structure 
     atomic species   magnetization
        Ag           0.700
        Bi           0.000

     No symmetry found


                                    s                        frac. trans.

      isym =  1     identity                                     

 cryst.   s( 1) = (     1          0          0      )
                  (     0          1          0      )
                  (     0          0          1      )

 cart.    s( 1) = (  1.0000000  0.0000000  0.0000000 )
                  (  0.0000000  1.0000000  0.0000000 )
                  (  0.0000000  0.0000000  1.0000000 )


     point group C_1 (1)    
     there are  1 classes
     the character table:

       E    
A      1.00

     the symmetry operations in each class and the name of the first element:

     E        1
          identity                                               

   Cartesian axes

     site n.     atom                  positions (alat units)
         1           Ag  tau(   1) = (   0.1482164   0.1449496   0.2853705  )
         2           Ag  tau(   2) = (   0.1794160   0.3113257   0.3563652  )
         3           Ag  tau(   3) = (   0.4315329   0.2203186   0.2297755  )
         4           Ag  tau(   4) = (   0.3104401   0.1833726   0.3621717  )
         5           Ag  tau(   5) = (   0.3479443   0.2058768   0.0669794  )
         6           Ag  tau(   6) = (   0.3753741   0.3710792   0.1421455  )
         7           Ag  tau(   7) = (   0.1713498   0.1603092   0.1017503  )
         8           Ag  tau(   8) = (   0.2598156   0.2557977   0.2093519  )
         9           Ag  tau(   9) = (   0.2195484   0.4273174   0.2203687  )
        10           Bi  tau(  10) = (   0.3601669   0.3641017   0.3313630  )
        11           Ag  tau(  11) = (   0.0909362   0.2985977   0.1960131  )
        12           Ag  tau(  12) = (   0.2144206   0.3363141   0.0610748  )
        13           Ag  tau(  13) = (   0.3070306   0.0876049   0.2056120  )

   Crystallographic axes

     site n.     atom                  positions (cryst. coord.)
         1           Ag  tau(   1) = (  0.1482164  0.1449496  0.2853705  )
         2           Ag  tau(   2) = (  0.1794160  0.3113257  0.3563652  )
         3           Ag  tau(   3) = (  0.4315329  0.2203186  0.2297755  )
         4           Ag  tau(   4) = (  0.3104401  0.1833726  0.3621717  )
         5           Ag  tau(   5) = (  0.3479443  0.2058768  0.0669794  )
         6           Ag  tau(   6) = (  0.3753741  0.3710792  0.1421455  )
         7           Ag  tau(   7) = (  0.1713498  0.1603092  0.1017503  )
         8           Ag  tau(   8) = (  0.2598156  0.2557977  0.2093519  )
         9           Ag  tau(   9) = (  0.2195484  0.4273174  0.2203687  )
        10           Bi  tau(  10) = (  0.3601669  0.3641017  0.3313630  )
        11           Ag  tau(  11) = (  0.0909362  0.2985977  0.1960131  )
        12           Ag  tau(  12) = (  0.2144206  0.3363141  0.0610748  )
        13           Ag  tau(  13) = (  0.3070306  0.0876049  0.2056120  )

     number of k points=     1  Fermi-Dirac smearing, width (Ry)=  0.0007
                       cart. coord. in units 2pi/alat
        k(    1) = (   0.0000000   0.0000000   0.0000000), wk =   1.0000000

                       cryst. coord.
        k(    1) = (   0.0000000   0.0000000   0.0000000), wk =   1.0000000

     Dense  grid:  1823828 G-vectors     FFT dimensions: ( 192, 192, 192)

     Smooth grid:  1304924 G-vectors     FFT dimensions: ( 180, 180, 180)

     Dynamical RAM for                 wfc:       9.23 MB

     Dynamical RAM for     wfc (w. buffer):      27.69 MB

     Dynamical RAM for           str. fact:       2.32 MB

     Dynamical RAM for           local pot:       0.00 MB

     Dynamical RAM for          nlocal pot:      24.27 MB

     Dynamical RAM for                qrad:      15.31 MB

     Dynamical RAM for          rho,v,vnew:      20.46 MB

     Dynamical RAM for               rhoin:       6.82 MB

     Dynamical RAM for            rho*nmix:      37.11 MB

     Dynamical RAM for           G-vectors:       4.76 MB

     Dynamical RAM for          h,s,v(r/c):       0.18 MB

     Dynamical RAM for          <psi|beta>:       0.16 MB

     Dynamical RAM for                 psi:      36.92 MB

     Dynamical RAM for                hpsi:      36.92 MB

     Dynamical RAM for                spsi:      36.92 MB

     Dynamical RAM for      wfcinit/wfcrot:      24.58 MB

     Dynamical RAM for           addusdens:     230.76 MB

     Estimated static dynamical RAM per process >     155.70 MB

     Estimated max dynamical RAM per process >     386.46 MB

     Estimated total dynamical RAM >       9.06 GB
     Generating pointlists ...
     new r_m :   0.0697 (alat units)  2.0900 (a.u.) for type    1
     new r_m :   0.0784 (alat units)  2.3506 (a.u.) for type    2

     Check: negative core charge=   -0.000004

     Initial potential from superposition of free atoms

     starting charge  146.99440, renormalised to  147.00000
     Starting wfcs are  117 randomized atomic wfcs
     Checking if some PAW data can be deallocated... 
       PAW data deallocated on    2 nodes for type:  1
       PAW data deallocated on   22 nodes for type:  2

     total cpu time spent up to now is       36.2 secs

     Self-consistent Calculation

     iteration #  1     ecut=    80.00 Ry     beta= 0.70
     Davidson diagonalization with overlap
     ethr =  1.00E-02,  avg # of iterations =  3.5

     total cpu time spent up to now is      100.1 secs

     total energy              =   -5168.35203212 Ry
     Harris-Foulkes estimate   =   -5162.04013554 Ry
     estimated scf accuracy    <       6.70355303 Ry

     total magnetization       =     5.00 Bohr mag/cell
     absolute magnetization    =     5.46 Bohr mag/cell

     iteration #  2     ecut=    80.00 Ry     beta= 0.70
     Davidson diagonalization with overlap
     ethr =  4.56E-03,  avg # of iterations =  1.0

     total cpu time spent up to now is      160.2 secs

     total energy              =   -5169.20363786 Ry
     Harris-Foulkes estimate   =   -5168.56485344 Ry
     estimated scf accuracy    <       0.93659733 Ry

     total magnetization       =     3.00 Bohr mag/cell
     absolute magnetization    =     3.41 Bohr mag/cell

     iteration #  3     ecut=    80.00 Ry     beta= 0.70
     Davidson diagonalization with overlap
     ethr =  6.37E-04,  avg # of iterations =  3.0

     total cpu time spent up to now is      222.4 secs

     total energy              =   -5169.25483902 Ry
     Harris-Foulkes estimate   =   -5169.26723371 Ry
     estimated scf accuracy    <       0.07972409 Ry

     total magnetization       =     2.98 Bohr mag/cell
     absolute magnetization    =     3.08 Bohr mag/cell

     iteration #  4     ecut=    80.00 Ry     beta= 0.70
     Davidson diagonalization with overlap
     ethr =  5.42E-05,  avg # of iterations =  9.5

     total cpu time spent up to now is      304.6 secs

     total energy              =   -5169.26591119 Ry
     Harris-Foulkes estimate   =   -5169.27359152 Ry
     estimated scf accuracy    <       0.03520779 Ry

     total magnetization       =     3.00 Bohr mag/cell
     absolute magnetization    =     3.10 Bohr mag/cell

     iteration #  5     ecut=    80.00 Ry     beta= 0.70
     Davidson diagonalization with overlap
     ethr =  2.40E-05,  avg # of iterations =  2.5

     total cpu time spent up to now is      366.3 secs

     total energy              =   -5169.26129339 Ry
     Harris-Foulkes estimate   =   -5169.26742126 Ry
     estimated scf accuracy    <       0.01953908 Ry

     total magnetization       =     3.00 Bohr mag/cell
     absolute magnetization    =     3.12 Bohr mag/cell

     iteration #  6     ecut=    80.00 Ry     beta= 0.70
     Davidson diagonalization with overlap
     ethr =  1.33E-05,  avg # of iterations =  9.0

     total cpu time spent up to now is      436.1 secs

     total energy              =   -5169.26079647 Ry
     Harris-Foulkes estimate   =   -5169.26238228 Ry
     estimated scf accuracy    <       0.01053435 Ry

     total magnetization       =     3.00 Bohr mag/cell
     absolute magnetization    =     3.16 Bohr mag/cell

     iteration #  7     ecut=    80.00 Ry     beta= 0.70
     Davidson diagonalization with overlap
     ethr =  7.17E-06,  avg # of iterations =  8.0

     total cpu time spent up to now is      504.9 secs

     total energy              =   -5169.25927646 Ry
     Harris-Foulkes estimate   =   -5169.26130537 Ry
     estimated scf accuracy    <       0.00564179 Ry

     total magnetization       =     3.00 Bohr mag/cell
     absolute magnetization    =     3.15 Bohr mag/cell

     iteration #  8     ecut=    80.00 Ry     beta= 0.70
     Davidson diagonalization with overlap
     ethr =  3.84E-06,  avg # of iterations = 10.5

     total cpu time spent up to now is      577.2 secs

     total energy              =   -5169.26095571 Ry
     Harris-Foulkes estimate   =   -5169.25950869 Ry
     estimated scf accuracy    <       0.00338762 Ry

     total magnetization       =     3.00 Bohr mag/cell
     absolute magnetization    =     3.14 Bohr mag/cell

     iteration #  9     ecut=    80.00 Ry     beta= 0.70
     Davidson diagonalization with overlap
     ethr =  2.30E-06,  avg # of iterations =  7.0

     total cpu time spent up to now is      645.4 secs

     total energy              =   -5169.26279422 Ry
     Harris-Foulkes estimate   =   -5169.26109157 Ry
     estimated scf accuracy    <       0.00178649 Ry

     total magnetization       =     3.00 Bohr mag/cell
     absolute magnetization    =     3.14 Bohr mag/cell

     iteration # 10     ecut=    80.00 Ry     beta= 0.70
     Davidson diagonalization with overlap
     ethr =  1.22E-06,  avg # of iterations =  9.0

     total cpu time spent up to now is      716.2 secs

     total energy              =   -5169.26378500 Ry
     Harris-Foulkes estimate   =   -5169.26288818 Ry
     estimated scf accuracy    <       0.00089182 Ry

     total magnetization       =     3.00 Bohr mag/cell
     absolute magnetization    =     3.14 Bohr mag/cell

     iteration # 11     ecut=    80.00 Ry     beta= 0.70
     Davidson diagonalization with overlap
     ethr =  6.07E-07,  avg # of iterations =  7.5

     total cpu time spent up to now is      783.9 secs

     total energy              =   -5169.26419067 Ry
     Harris-Foulkes estimate   =   -5169.26384486 Ry
     estimated scf accuracy    <       0.00051345 Ry

     total magnetization       =     3.00 Bohr mag/cell
     absolute magnetization    =     3.14 Bohr mag/cell

     iteration # 12     ecut=    80.00 Ry     beta= 0.70
     Davidson diagonalization with overlap
     ethr =  3.49E-07,  avg # of iterations =  5.0

     total cpu time spent up to now is      846.4 secs

     total energy              =   -5169.26428700 Ry
     Harris-Foulkes estimate   =   -5169.26421304 Ry
     estimated scf accuracy    <       0.00030580 Ry

     total magnetization       =     3.00 Bohr mag/cell
     absolute magnetization    =     3.14 Bohr mag/cell

     iteration # 13     ecut=    80.00 Ry     beta= 0.70
     Davidson diagonalization with overlap
     ethr =  2.08E-07,  avg # of iterations =  8.5

     total cpu time spent up to now is      913.2 secs

     total energy              =   -5169.26433927 Ry
     Harris-Foulkes estimate   =   -5169.26430568 Ry
     estimated scf accuracy    <       0.00010626 Ry

     total magnetization       =     3.00 Bohr mag/cell
     absolute magnetization    =     3.14 Bohr mag/cell

     iteration # 14     ecut=    80.00 Ry     beta= 0.70
     Davidson diagonalization with overlap
     ethr =  7.23E-08,  avg # of iterations =  2.0

     total cpu time spent up to now is      972.4 secs

     total energy              =   -5169.26452441 Ry
     Harris-Foulkes estimate   =   -5169.26434181 Ry
     estimated scf accuracy    <       0.00005346 Ry

     total magnetization       =     3.00 Bohr mag/cell
     absolute magnetization    =     3.14 Bohr mag/cell

     iteration # 15     ecut=    80.00 Ry     beta= 0.70
     Davidson diagonalization with overlap
     ethr =  3.64E-08,  avg # of iterations =  6.0

     total cpu time spent up to now is     1036.7 secs

     total energy              =   -5169.26456366 Ry
     Harris-Foulkes estimate   =   -5169.26452797 Ry
     estimated scf accuracy    <       0.00001652 Ry

     total magnetization       =     3.00 Bohr mag/cell
     absolute magnetization    =     3.14 Bohr mag/cell

     iteration # 16     ecut=    80.00 Ry     beta= 0.70
     Davidson diagonalization with overlap
     ethr =  1.12E-08,  avg # of iterations =  2.0

     total cpu time spent up to now is     1096.5 secs

     total energy              =   -5169.26457529 Ry
     Harris-Foulkes estimate   =   -5169.26456412 Ry
     estimated scf accuracy    <       0.00000873 Ry

     total magnetization       =     3.00 Bohr mag/cell
     absolute magnetization    =     3.14 Bohr mag/cell

     iteration # 17     ecut=    80.00 Ry     beta= 0.70
     Davidson diagonalization with overlap
     ethr =  5.94E-09,  avg # of iterations =  3.0

     total cpu time spent up to now is     1157.3 secs

     total energy              =   -5169.26457682 Ry
     Harris-Foulkes estimate   =   -5169.26457583 Ry
     estimated scf accuracy    <       0.00000312 Ry

     total magnetization       =     3.00 Bohr mag/cell
     absolute magnetization    =     3.14 Bohr mag/cell

     iteration # 18     ecut=    80.00 Ry     beta= 0.70
     Davidson diagonalization with overlap
     ethr =  2.12E-09,  avg # of iterations =  2.0

     total cpu time spent up to now is     1216.7 secs

     total energy              =   -5169.26457743 Ry
     Harris-Foulkes estimate   =   -5169.26457693 Ry
     estimated scf accuracy    <       0.00000103 Ry

     total magnetization       =     3.00 Bohr mag/cell
     absolute magnetization    =     3.14 Bohr mag/cell

     iteration # 19     ecut=    80.00 Ry     beta= 0.70
     Davidson diagonalization with overlap
     ethr =  6.99E-10,  avg # of iterations =  3.5

     total cpu time spent up to now is     1277.7 secs

     total energy              =   -5169.26457826 Ry
     Harris-Foulkes estimate   =   -5169.26457754 Ry
     estimated scf accuracy    <       0.00000024 Ry

     total magnetization       =     3.00 Bohr mag/cell
     absolute magnetization    =     3.14 Bohr mag/cell

     iteration # 20     ecut=    80.00 Ry     beta= 0.70
     Davidson diagonalization with overlap
     ethr =  1.66E-10,  avg # of iterations =  2.5

     total cpu time spent up to now is     1337.6 secs

     total energy              =   -5169.26457902 Ry
     Harris-Foulkes estimate   =   -5169.26457828 Ry
     estimated scf accuracy    <       0.00000010 Ry

     total magnetization       =     3.00 Bohr mag/cell
     absolute magnetization    =     3.14 Bohr mag/cell

     iteration # 21     ecut=    80.00 Ry     beta= 0.70
     Davidson diagonalization with overlap
     ethr =  6.57E-11,  avg # of iterations =  3.5

     total cpu time spent up to now is     1398.9 secs

     total energy              =   -5169.26457921 Ry
     Harris-Foulkes estimate   =   -5169.26457903 Ry
     estimated scf accuracy    <       0.00000003 Ry

     total magnetization       =     3.00 Bohr mag/cell
     absolute magnetization    =     3.14 Bohr mag/cell

     iteration # 22     ecut=    80.00 Ry     beta= 0.70
     Davidson diagonalization with overlap
     ethr =  2.15E-11,  avg # of iterations =  3.0

     total cpu time spent up to now is     1459.0 secs

     total energy              =   -5169.26457932 Ry
     Harris-Foulkes estimate   =   -5169.26457921 Ry
     estimated scf accuracy    <       0.00000001 Ry

     total magnetization       =     3.00 Bohr mag/cell
     absolute magnetization    =     3.14 Bohr mag/cell

     iteration # 23     ecut=    80.00 Ry     beta= 0.70
     Davidson diagonalization with overlap
     ethr =  9.30E-12,  avg # of iterations =  4.0
 
     Magnetic moment per site:
     atom:    1    charge:    9.2277    magn:    0.0512    constr:    0.0000
     atom:    2    charge:    9.2281    magn:    0.0703    constr:    0.0000
     atom:    3    charge:    9.2282    magn:    0.0703    constr:    0.0000
     atom:    4    charge:    9.2280    magn:    0.0703    constr:    0.0000
     atom:    5    charge:    9.2276    magn:    0.0511    constr:    0.0000
     atom:    6    charge:    9.2282    magn:    0.0703    constr:    0.0000
     atom:    7    charge:    9.2307    magn:    0.0279    constr:    0.0000
     atom:    8    charge:    9.3245    magn:    0.1105    constr:    0.0000
     atom:    9    charge:    9.2282    magn:    0.0703    constr:    0.0000
     atom:   10    charge:   12.6157    magn:    0.1154    constr:    0.0000
     atom:   11    charge:    9.2275    magn:    0.0511    constr:    0.0000
     atom:   12    charge:    9.2277    magn:    0.0512    constr:    0.0000
     atom:   13    charge:    9.2275    magn:    0.0511    constr:    0.0000

     total cpu time spent up to now is     1517.5 secs

     End of self-consistent calculation

 ------ SPIN UP ------------


          k = 0.0000 0.0000 0.0000 (163015 PWs)   bands (ev):

   -25.6201 -25.5972 -25.5972 -25.5073 -25.5073 -13.7596  -9.1811  -8.8732
    -8.8731  -8.8307  -8.8306  -8.7566  -7.9524  -7.9521  -7.8371  -7.8370
    -7.8134  -7.7907  -7.7084  -7.7083  -7.6938  -7.6938  -7.6405  -7.6403
    -7.5700  -7.5698  -7.4675  -7.4673  -7.4450  -7.4227  -7.3385  -7.3385
    -7.3044  -7.3040  -7.0364  -7.0241  -7.0176  -7.0173  -7.0045  -7.0041
    -6.9758  -6.9755  -6.7895  -6.7527  -6.7526  -6.6075  -6.6074  -6.4857
    -6.4856  -6.4680  -6.4680  -6.3904  -6.3515  -6.3514  -6.3472  -6.3469
    -6.3140  -6.3100  -6.3099  -6.2306  -6.2199  -6.2198  -6.1897  -6.1896
    -6.1485  -6.1484  -6.0793  -5.5424  -5.5422  -4.9039  -3.9218  -3.9217
    -3.2002  -3.1997  -3.1189  -2.1091  -1.8270  -1.8269  -1.5801  -1.1312
    -1.1296  -0.7989  -0.7964  -0.7455  -0.7444   0.1435   0.2710   0.3581
     0.3609

     occupation numbers 
     1.0000   1.0000   1.0000   1.0000   1.0000   1.0000   1.0000   1.0000
     1.0000   1.0000   1.0000   1.0000   1.0000   1.0000   1.0000   1.0000
     1.0000   1.0000   1.0000   1.0000   1.0000   1.0000   1.0000   1.0000
     1.0000   1.0000   1.0000   1.0000   1.0000   1.0000   1.0000   1.0000
     1.0000   1.0000   1.0000   1.0000   1.0000   1.0000   1.0000   1.0000
     1.0000   1.0000   1.0000   1.0000   1.0000   1.0000   1.0000   1.0000
     1.0000   1.0000   1.0000   1.0000   1.0000   1.0000   1.0000   1.0000
     1.0000   1.0000   1.0000   1.0000   1.0000   1.0000   1.0000   1.0000
     1.0000   1.0000   1.0000   1.0000   1.0000   1.0000   1.0000   1.0000
     1.0000   1.0000   1.0000   0.0000   0.0000   0.0000   0.0000   0.0000
     0.0000   0.0000   0.0000   0.0000   0.0000   0.0000   0.0000   0.0000
     0.0000

 ------ SPIN DOWN ----------


          k = 0.0000 0.0000 0.0000 (163015 PWs)   bands (ev):

   -25.5604 -25.5546 -25.5546 -25.5034 -25.5034 -13.6081  -9.1287  -8.7992
    -8.7991  -8.7877  -8.7876  -8.6880  -7.8949  -7.8946  -7.7779  -7.7777
    -7.7233  -7.6915  -7.6549  -7.6549  -7.6448  -7.6447  -7.5679  -7.5678
    -7.5072  -7.5070  -7.3989  -7.3805  -7.3803  -7.3020  -7.2745  -7.2744
    -7.2334  -7.2330  -6.9860  -6.9697  -6.9694  -6.9690  -6.9538  -6.9534
    -6.9295  -6.9293  -6.7178  -6.6899  -6.6898  -6.5419  -6.5419  -6.4353
    -6.4352  -6.4212  -6.4211  -6.3188  -6.3058  -6.3058  -6.3023  -6.3020
    -6.2617  -6.2617  -6.2540  -6.1751  -6.1706  -6.1705  -6.1313  -6.1312
    -6.0860  -6.0859  -6.0468  -5.3768  -5.3766  -4.7861  -3.7954  -3.7953
    -2.8780  -2.8775  -2.7807  -1.9698  -1.6403  -1.6402  -1.3547  -0.8984
    -0.8973  -0.5424  -0.5422  -0.4848  -0.4815   0.2785   0.3535   0.5593
     0.5693

     occupation numbers 
     1.0000   1.0000   1.0000   1.0000   1.0000   1.0000   1.0000   1.0000
     1.0000   1.0000   1.0000   1.0000   1.0000   1.0000   1.0000   1.0000
     1.0000   1.0000   1.0000   1.0000   1.0000   1.0000   1.0000   1.0000
     1.0000   1.0000   1.0000   1.0000   1.0000   1.0000   1.0000   1.0000
     1.0000   1.0000   1.0000   1.0000   1.0000   1.0000   1.0000   1.0000
     1.0000   1.0000   1.0000   1.0000   1.0000   1.0000   1.0000   1.0000
     1.0000   1.0000   1.0000   1.0000   1.0000   1.0000   1.0000   1.0000
     1.0000   1.0000   1.0000   1.0000   1.0000   1.0000   1.0000   1.0000
     1.0000   1.0000   1.0000   1.0000   1.0000   1.0000   1.0000   1.0000
     0.0000   0.0000   0.0000   0.0000   0.0000   0.0000   0.0000   0.0000
     0.0000   0.0000   0.0000   0.0000   0.0000   0.0000   0.0000   0.0000
     0.0000

     the Fermi energy is    -3.0016 ev

!    total energy              =   -5169.26457922 Ry
     Harris-Foulkes estimate   =   -5169.26457932 Ry
     estimated scf accuracy    <          6.5E-09 Ry

     total all-electron energy =   -170648.315241 Ry

     The total energy is the sum of the following terms:

     one-electron contribution =   -3776.93937411 Ry
     hartree contribution      =    1984.21664523 Ry
     xc contribution           =    -459.87911113 Ry
     ewald contribution        =     989.86276629 Ry
     one-center paw contrib.   =   -3906.52550541 Ry
      -> PAW hartree energy AE =      66.87593272 Ry
      -> PAW hartree energy PS =     -66.72839654 Ry
      -> PAW xc energy AE      =    -297.86702929 Ry
      -> PAW xc energy PS      =      35.22452712 Ry
      -> total E_H with PAW    =    1984.36418142 Ry
      -> total E_XC with PAW   =    -722.52161330 Ry
     smearing contrib. (-TS)   =      -0.00000009 Ry

     total magnetization       =     3.00 Bohr mag/cell
     absolute magnetization    =     3.14 Bohr mag/cell

     convergence has been achieved in  23 iterations

     Writing output data file ./tmp/ag12Bil.save/
 
     init_run     :     30.76s CPU     31.90s WALL (       1 calls)
     electrons    :   1445.84s CPU   1481.58s WALL (       1 calls)

     Called by init_run:
     wfcinit      :     15.27s CPU     15.53s WALL (       1 calls)
     wfcinit:atom :      0.10s CPU      0.14s WALL (       2 calls)
     wfcinit:wfcr :     14.92s CPU     15.08s WALL (       2 calls)
     potinit      :      5.09s CPU      5.32s WALL (       1 calls)
     hinit0       :      2.12s CPU      2.20s WALL (       1 calls)

     Called by electrons:
     c_bands      :    711.14s CPU    720.30s WALL (      23 calls)
     sum_band     :    440.27s CPU    452.99s WALL (      23 calls)
     v_of_rho     :     58.69s CPU     59.50s WALL (      24 calls)
     v_h          :      3.93s CPU      3.96s WALL (      24 calls)
     v_xc         :     54.76s CPU     55.54s WALL (      24 calls)
     newd         :    115.38s CPU    126.42s WALL (      24 calls)
     PAW_pot      :     30.56s CPU     30.87s WALL (      24 calls)
     mix_rho      :     84.61s CPU     86.47s WALL (      23 calls)

     Called by c_bands:
     init_us_2    :      4.13s CPU      4.22s WALL (      94 calls)
     regterg      :    689.97s CPU    698.98s WALL (      46 calls)

     Called by sum_band:
     sum_band:bec :      0.03s CPU      0.03s WALL (      46 calls)
     addusdens    :    298.13s CPU    310.19s WALL (      23 calls)

     Called by *egterg:
     h_psi        :    558.04s CPU    560.88s WALL (     279 calls)
     s_psi        :     39.91s CPU     39.98s WALL (     279 calls)
     g_psi        :      1.14s CPU      1.14s WALL (     231 calls)
     rdiaghg      :      7.21s CPU      7.65s WALL (     277 calls)
     regterg:over :     35.06s CPU     35.12s WALL (     231 calls)
     regterg:upda :     32.08s CPU     32.53s WALL (     231 calls)
     regterg:last :      9.23s CPU      9.26s WALL (      46 calls)
     rdiaghg:chol :      0.25s CPU      0.26s WALL (     277 calls)
     rdiaghg:inve :      0.21s CPU      0.21s WALL (     277 calls)
     rdiaghg:para :      0.63s CPU      0.64s WALL (     554 calls)

     Called by h_psi:
     h_psi:calbec :     26.10s CPU     26.17s WALL (     279 calls)
     vloc_psi     :    486.20s CPU    488.85s WALL (     279 calls)
     add_vuspsi   :     43.08s CPU     43.19s WALL (     279 calls)

     General routines
     calbec       :     34.37s CPU     34.45s WALL (     325 calls)
     fft          :     62.88s CPU     63.36s WALL (     497 calls)
     ffts         :     55.57s CPU     56.01s WALL (     574 calls)
     fftw         :    479.26s CPU    481.76s WALL (   11652 calls)
     interpolate  :     11.96s CPU     12.08s WALL (      48 calls)
 
     Parallel routines
     fft_scatt_xy :     94.55s CPU     95.10s WALL (   12723 calls)
     fft_scatt_yz :    162.11s CPU    163.04s WALL (   12723 calls)

     PAW routines
     PAW_pot      :     30.56s CPU     30.87s WALL (      24 calls)
 
     PWSCF        :  24m41.33s CPU  25m19.50s WALL

 
   This run was terminated on:  10:11:32   4Jan2021            

=------------------------------------------------------------------------------=
   JOB DONE.
=------------------------------------------------------------------------------=
