
     Program PWSCF v.6.5 starts on  4Jan2021 at  2: 3: 6 

     This program is part of the open-source Quantum ESPRESSO suite
     for quantum simulation of materials; please cite
         "P. Giannozzi et al., J. Phys.:Condens. Matter 21 395502 (2009);
         "P. Giannozzi et al., J. Phys.:Condens. Matter 29 465901 (2017);
          URL http://www.quantum-espresso.org", 
     in publications or presentations arising from this work. More details at
     http://www.quantum-espresso.org/quote

     Parallel version (MPI & OpenMP), running on      24 processor cores
     Number of MPI processes:                24
     Threads/MPI process:                     1

     MPI processes distributed on     1 nodes
     R & G space division:  proc/nbgrp/npool/nimage =      24
     Waiting for input...
     Reading input from standard input

     Current dimensions of program PWSCF are:
     Max number of different atomic species (ntypx) = 10
     Max number of k-points (npk) =  40000
     Max angular momentum in pseudopotentials (lmaxx) =  3
               file Ag.pbe-dn-kjpaw_psl.0.1.UPF: wavefunction(s)  5S 5P 4D renormalized
               file Bi.pbe-dn-kjpaw_psl.1.0.0.UPF: wavefunction(s)  6P 5D renormalized

     gamma-point specific algorithms are used

     Subspace diagonalization in iterative solution of the eigenvalue problem:
     one sub-group per band group will be used
     scalapack distributed-memory algorithm (size of sub-group:  4*  4 procs)

 
     Parallelization info
     --------------------
     sticks:   dense  smooth     PW     G-vecs:    dense   smooth      PW
     Min        1668     953    237               251752   108738   13581
     Max        1671     956    240               251763   108748   13592
     Sum       40077   22901   5721              6042269  2609847  326029
 


     bravais-lattice index     =            1
     lattice parameter (alat)  =      30.0000  a.u.
     unit-cell volume          =   27000.0000 (a.u.)^3
     number of atoms/cell      =           13
     number of atomic types    =            2
     number of electrons       =       147.00
     number of Kohn-Sham states=           89
     kinetic-energy cutoff     =      80.0000  Ry
     charge density cutoff     =     560.0000  Ry
     convergence threshold     =      1.0E-08
     mixing beta               =       0.7000
     number of iterations used =            8  local-TF  mixing
     Exchange-correlation= SLA PW PBX PBC
                           (   1   4   3   4   0   0   0)

     celldm(1)=  30.000000  celldm(2)=   0.000000  celldm(3)=   0.000000
     celldm(4)=   0.000000  celldm(5)=   0.000000  celldm(6)=   0.000000

     crystal axes: (cart. coord. in units of alat)
               a(1) = (   1.000000   0.000000   0.000000 )  
               a(2) = (   0.000000   1.000000   0.000000 )  
               a(3) = (   0.000000   0.000000   1.000000 )  

     reciprocal axes: (cart. coord. in units 2 pi/alat)
               b(1) = (  1.000000  0.000000  0.000000 )  
               b(2) = (  0.000000  1.000000  0.000000 )  
               b(3) = (  0.000000  0.000000  1.000000 )  


     PseudoPot. # 1 for Ag read from file:
     ../../pseudo/Ag.pbe-dn-kjpaw_psl.0.1.UPF
     MD5 check sum: 2edc915f30f03476250949c796a6a376
     Pseudo is Projector augmented-wave + core cor, Zval = 11.0
     Generated using "atomic" code by A. Dal Corso v.5.0.2 svn rev. 9415
     Shape of augmentation charge: PSQ
     Using radial grid of 1237 points,  6 beta functions with: 
                l(1) =   0
                l(2) =   0
                l(3) =   1
                l(4) =   1
                l(5) =   2
                l(6) =   2
     Q(r) pseudized with 0 coefficients 


     PseudoPot. # 2 for Bi read from file:
     ../../pseudo/Bi.pbe-dn-kjpaw_psl.1.0.0.UPF
     MD5 check sum: 266ded784ae3bc462508ed03f0f37963
     Pseudo is Projector augmented-wave + core cor, Zval = 15.0
     Generated using "atomic" code by A. Dal Corso v.6.2.2
     Shape of augmentation charge: PSQ
     Using radial grid of 1283 points,  6 beta functions with: 
                l(1) =   0
                l(2) =   0
                l(3) =   1
                l(4) =   1
                l(5) =   2
                l(6) =   2
     Q(r) pseudized with 0 coefficients 


     atomic species   valence    mass     pseudopotential
        Ag            11.00   107.87000     Ag( 1.00)
        Bi            15.00   208.98000     Bi( 1.00)

     Starting magnetic structure 
     atomic species   magnetization
        Ag           0.700
        Bi           0.000

     No symmetry found


                                    s                        frac. trans.

      isym =  1     identity                                     

 cryst.   s( 1) = (     1          0          0      )
                  (     0          1          0      )
                  (     0          0          1      )

 cart.    s( 1) = (  1.0000000  0.0000000  0.0000000 )
                  (  0.0000000  1.0000000  0.0000000 )
                  (  0.0000000  0.0000000  1.0000000 )


     point group C_1 (1)    
     there are  1 classes
     the character table:

       E    
A      1.00

     the symmetry operations in each class and the name of the first element:

     E        1
          identity                                               

   Cartesian axes

     site n.     atom                  positions (alat units)
         1           Ag  tau(   1) = (   0.1482164   0.1449496   0.2853705  )
         2           Ag  tau(   2) = (   0.1794160   0.3113257   0.3563652  )
         3           Ag  tau(   3) = (   0.4315329   0.2203186   0.2297755  )
         4           Ag  tau(   4) = (   0.3104401   0.1833726   0.3621717  )
         5           Ag  tau(   5) = (   0.3479443   0.2058768   0.0669794  )
         6           Ag  tau(   6) = (   0.3753741   0.3710792   0.1421455  )
         7           Ag  tau(   7) = (   0.1713498   0.1603092   0.1017503  )
         8           Ag  tau(   8) = (   0.2598156   0.2557977   0.2093519  )
         9           Ag  tau(   9) = (   0.2195484   0.4273174   0.2203687  )
        10           Bi  tau(  10) = (   0.3601669   0.3641017   0.3313630  )
        11           Ag  tau(  11) = (   0.0909362   0.2985977   0.1960131  )
        12           Ag  tau(  12) = (   0.2144206   0.3363141   0.0610748  )
        13           Ag  tau(  13) = (   0.3070306   0.0876049   0.2056120  )

   Crystallographic axes

     site n.     atom                  positions (cryst. coord.)
         1           Ag  tau(   1) = (  0.1482164  0.1449496  0.2853705  )
         2           Ag  tau(   2) = (  0.1794160  0.3113257  0.3563652  )
         3           Ag  tau(   3) = (  0.4315329  0.2203186  0.2297755  )
         4           Ag  tau(   4) = (  0.3104401  0.1833726  0.3621717  )
         5           Ag  tau(   5) = (  0.3479443  0.2058768  0.0669794  )
         6           Ag  tau(   6) = (  0.3753741  0.3710792  0.1421455  )
         7           Ag  tau(   7) = (  0.1713498  0.1603092  0.1017503  )
         8           Ag  tau(   8) = (  0.2598156  0.2557977  0.2093519  )
         9           Ag  tau(   9) = (  0.2195484  0.4273174  0.2203687  )
        10           Bi  tau(  10) = (  0.3601669  0.3641017  0.3313630  )
        11           Ag  tau(  11) = (  0.0909362  0.2985977  0.1960131  )
        12           Ag  tau(  12) = (  0.2144206  0.3363141  0.0610748  )
        13           Ag  tau(  13) = (  0.3070306  0.0876049  0.2056120  )

     number of k points=     1  Fermi-Dirac smearing, width (Ry)=  0.0007
                       cart. coord. in units 2pi/alat
        k(    1) = (   0.0000000   0.0000000   0.0000000), wk =   1.0000000

                       cryst. coord.
        k(    1) = (   0.0000000   0.0000000   0.0000000), wk =   1.0000000

     Dense  grid:  3021135 G-vectors     FFT dimensions: ( 225, 225, 225)

     Smooth grid:  1304924 G-vectors     FFT dimensions: ( 180, 180, 180)

     Dynamical RAM for                 wfc:       9.23 MB

     Dynamical RAM for     wfc (w. buffer):      27.69 MB

     Dynamical RAM for           str. fact:       3.84 MB

     Dynamical RAM for           local pot:       0.00 MB

     Dynamical RAM for          nlocal pot:      24.27 MB

     Dynamical RAM for                qrad:      18.11 MB

     Dynamical RAM for          rho,v,vnew:      34.70 MB

     Dynamical RAM for               rhoin:      11.57 MB

     Dynamical RAM for            rho*nmix:      61.47 MB

     Dynamical RAM for           G-vectors:       7.62 MB

     Dynamical RAM for          h,s,v(r/c):       0.18 MB

     Dynamical RAM for          <psi|beta>:       0.16 MB

     Dynamical RAM for                 psi:      36.92 MB

     Dynamical RAM for                hpsi:      36.92 MB

     Dynamical RAM for                spsi:      36.92 MB

     Dynamical RAM for      wfcinit/wfcrot:      24.58 MB

     Dynamical RAM for           addusdens:     382.24 MB

     Estimated static dynamical RAM per process >     218.19 MB

     Estimated max dynamical RAM per process >     600.43 MB

     Estimated total dynamical RAM >      14.07 GB
     Generating pointlists ...
     new r_m :   0.0697 (alat units)  2.0900 (a.u.) for type    1
     new r_m :   0.0784 (alat units)  2.3506 (a.u.) for type    2

     Check: negative core charge=   -0.000002

     Initial potential from superposition of free atoms

     starting charge  146.99440, renormalised to  147.00000
     Starting wfcs are  117 randomized atomic wfcs
     Checking if some PAW data can be deallocated... 
       PAW data deallocated on    2 nodes for type:  1
       PAW data deallocated on   22 nodes for type:  2

     total cpu time spent up to now is       46.9 secs

     Self-consistent Calculation

     iteration #  1     ecut=    80.00 Ry     beta= 0.70
     Davidson diagonalization with overlap
     ethr =  1.00E-02,  avg # of iterations =  3.5

     total cpu time spent up to now is      128.1 secs

     total energy              =   -5168.35005767 Ry
     Harris-Foulkes estimate   =   -5162.03903598 Ry
     estimated scf accuracy    <       6.70640485 Ry

     total magnetization       =     5.00 Bohr mag/cell
     absolute magnetization    =     5.46 Bohr mag/cell

     iteration #  2     ecut=    80.00 Ry     beta= 0.70
     Davidson diagonalization with overlap
     ethr =  4.56E-03,  avg # of iterations =  1.0

     total cpu time spent up to now is      203.7 secs

     total energy              =   -5169.20176545 Ry
     Harris-Foulkes estimate   =   -5168.56290398 Ry
     estimated scf accuracy    <       0.93703994 Ry

     total magnetization       =     3.00 Bohr mag/cell
     absolute magnetization    =     3.41 Bohr mag/cell

     iteration #  3     ecut=    80.00 Ry     beta= 0.70
     Davidson diagonalization with overlap
     ethr =  6.37E-04,  avg # of iterations =  3.0

     total cpu time spent up to now is      281.8 secs

     total energy              =   -5169.25326231 Ry
     Harris-Foulkes estimate   =   -5169.26527554 Ry
     estimated scf accuracy    <       0.08006672 Ry

     total magnetization       =     2.98 Bohr mag/cell
     absolute magnetization    =     3.08 Bohr mag/cell

     iteration #  4     ecut=    80.00 Ry     beta= 0.70
     Davidson diagonalization with overlap
     ethr =  5.45E-05,  avg # of iterations =  9.5

     total cpu time spent up to now is      379.9 secs

     total energy              =   -5169.26401741 Ry
     Harris-Foulkes estimate   =   -5169.27192181 Ry
     estimated scf accuracy    <       0.03560680 Ry

     total magnetization       =     3.00 Bohr mag/cell
     absolute magnetization    =     3.10 Bohr mag/cell

     iteration #  5     ecut=    80.00 Ry     beta= 0.70
     Davidson diagonalization with overlap
     ethr =  2.42E-05,  avg # of iterations =  2.5

     total cpu time spent up to now is      457.1 secs

     total energy              =   -5169.25877603 Ry
     Harris-Foulkes estimate   =   -5169.26552969 Ry
     estimated scf accuracy    <       0.01987825 Ry

     total magnetization       =     3.00 Bohr mag/cell
     absolute magnetization    =     3.13 Bohr mag/cell

     iteration #  6     ecut=    80.00 Ry     beta= 0.70
     Davidson diagonalization with overlap
     ethr =  1.35E-05,  avg # of iterations =  9.5

     total cpu time spent up to now is      543.2 secs

     total energy              =   -5169.25788315 Ry
     Harris-Foulkes estimate   =   -5169.25986554 Ry
     estimated scf accuracy    <       0.01070296 Ry

     total magnetization       =     3.00 Bohr mag/cell
     absolute magnetization    =     3.16 Bohr mag/cell

     iteration #  7     ecut=    80.00 Ry     beta= 0.70
     Davidson diagonalization with overlap
     ethr =  7.28E-06,  avg # of iterations =  8.0

     total cpu time spent up to now is      628.3 secs

     total energy              =   -5169.25623810 Ry
     Harris-Foulkes estimate   =   -5169.25840729 Ry
     estimated scf accuracy    <       0.00566446 Ry

     total magnetization       =     3.00 Bohr mag/cell
     absolute magnetization    =     3.15 Bohr mag/cell

     iteration #  8     ecut=    80.00 Ry     beta= 0.70
     Davidson diagonalization with overlap
     ethr =  3.85E-06,  avg # of iterations = 10.5

     total cpu time spent up to now is      716.3 secs

     total energy              =   -5169.25813255 Ry
     Harris-Foulkes estimate   =   -5169.25647839 Ry
     estimated scf accuracy    <       0.00345579 Ry

     total magnetization       =     3.00 Bohr mag/cell
     absolute magnetization    =     3.14 Bohr mag/cell

     iteration #  9     ecut=    80.00 Ry     beta= 0.70
     Davidson diagonalization with overlap
     ethr =  2.35E-06,  avg # of iterations =  7.5

     total cpu time spent up to now is      802.8 secs

     total energy              =   -5169.26051966 Ry
     Harris-Foulkes estimate   =   -5169.25828585 Ry
     estimated scf accuracy    <       0.00180509 Ry

     total magnetization       =     3.00 Bohr mag/cell
     absolute magnetization    =     3.14 Bohr mag/cell

     iteration # 10     ecut=    80.00 Ry     beta= 0.70
     Davidson diagonalization with overlap
     ethr =  1.23E-06,  avg # of iterations =  9.5

     total cpu time spent up to now is      890.7 secs

     total energy              =   -5169.26142031 Ry
     Harris-Foulkes estimate   =   -5169.26060902 Ry
     estimated scf accuracy    <       0.00090157 Ry

     total magnetization       =     3.00 Bohr mag/cell
     absolute magnetization    =     3.14 Bohr mag/cell

     iteration # 11     ecut=    80.00 Ry     beta= 0.70
     Davidson diagonalization with overlap
     ethr =  6.13E-07,  avg # of iterations =  8.0

     total cpu time spent up to now is      976.4 secs

     total energy              =   -5169.26189527 Ry
     Harris-Foulkes estimate   =   -5169.26148191 Ry
     estimated scf accuracy    <       0.00052637 Ry

     total magnetization       =     3.00 Bohr mag/cell
     absolute magnetization    =     3.14 Bohr mag/cell

     iteration # 12     ecut=    80.00 Ry     beta= 0.70
     Davidson diagonalization with overlap
     ethr =  3.58E-07,  avg # of iterations =  5.0

     total cpu time spent up to now is     1056.3 secs

     total energy              =   -5169.26196594 Ry
     Harris-Foulkes estimate   =   -5169.26191716 Ry
     estimated scf accuracy    <       0.00031576 Ry

     total magnetization       =     3.00 Bohr mag/cell
     absolute magnetization    =     3.14 Bohr mag/cell

     iteration # 13     ecut=    80.00 Ry     beta= 0.70
     Davidson diagonalization with overlap
     ethr =  2.15E-07,  avg # of iterations =  9.0

     total cpu time spent up to now is     1142.4 secs

     total energy              =   -5169.26197809 Ry
     Harris-Foulkes estimate   =   -5169.26198526 Ry
     estimated scf accuracy    <       0.00011124 Ry

     total magnetization       =     3.00 Bohr mag/cell
     absolute magnetization    =     3.14 Bohr mag/cell

     iteration # 14     ecut=    80.00 Ry     beta= 0.70
     Davidson diagonalization with overlap
     ethr =  7.57E-08,  avg # of iterations =  3.5

     total cpu time spent up to now is     1220.3 secs

     total energy              =   -5169.26218319 Ry
     Harris-Foulkes estimate   =   -5169.26198077 Ry
     estimated scf accuracy    <       0.00005434 Ry

     total magnetization       =     3.00 Bohr mag/cell
     absolute magnetization    =     3.14 Bohr mag/cell

     iteration # 15     ecut=    80.00 Ry     beta= 0.70
     Davidson diagonalization with overlap
     ethr =  3.70E-08,  avg # of iterations =  7.0

     total cpu time spent up to now is     1302.2 secs

     total energy              =   -5169.26224473 Ry
     Harris-Foulkes estimate   =   -5169.26218711 Ry
     estimated scf accuracy    <       0.00001699 Ry

     total magnetization       =     3.00 Bohr mag/cell
     absolute magnetization    =     3.14 Bohr mag/cell

     iteration # 16     ecut=    80.00 Ry     beta= 0.70
     Davidson diagonalization with overlap
     ethr =  1.16E-08,  avg # of iterations =  2.5

     total cpu time spent up to now is     1380.0 secs

     total energy              =   -5169.26226097 Ry
     Harris-Foulkes estimate   =   -5169.26224538 Ry
     estimated scf accuracy    <       0.00000897 Ry

     total magnetization       =     3.00 Bohr mag/cell
     absolute magnetization    =     3.14 Bohr mag/cell

     iteration # 17     ecut=    80.00 Ry     beta= 0.70
     Davidson diagonalization with overlap
     ethr =  6.10E-09,  avg # of iterations =  6.5

     total cpu time spent up to now is     1461.3 secs

     total energy              =   -5169.26226329 Ry
     Harris-Foulkes estimate   =   -5169.26226164 Ry
     estimated scf accuracy    <       0.00000312 Ry

     total magnetization       =     3.00 Bohr mag/cell
     absolute magnetization    =     3.14 Bohr mag/cell

     iteration # 18     ecut=    80.00 Ry     beta= 0.70
     Davidson diagonalization with overlap
     ethr =  2.12E-09,  avg # of iterations =  2.0

     total cpu time spent up to now is     1538.2 secs

     total energy              =   -5169.26226510 Ry
     Harris-Foulkes estimate   =   -5169.26226340 Ry
     estimated scf accuracy    <       0.00000113 Ry

     total magnetization       =     3.00 Bohr mag/cell
     absolute magnetization    =     3.14 Bohr mag/cell

     iteration # 19     ecut=    80.00 Ry     beta= 0.70
     Davidson diagonalization with overlap
     ethr =  7.67E-10,  avg # of iterations =  4.0

     total cpu time spent up to now is     1617.7 secs

     total energy              =   -5169.26226558 Ry
     Harris-Foulkes estimate   =   -5169.26226523 Ry
     estimated scf accuracy    <       0.00000028 Ry

     total magnetization       =     3.00 Bohr mag/cell
     absolute magnetization    =     3.14 Bohr mag/cell

     iteration # 20     ecut=    80.00 Ry     beta= 0.70
     Davidson diagonalization with overlap
     ethr =  1.92E-10,  avg # of iterations =  3.0

     total cpu time spent up to now is     1695.6 secs

     total energy              =   -5169.26226601 Ry
     Harris-Foulkes estimate   =   -5169.26226560 Ry
     estimated scf accuracy    <       0.00000011 Ry

     total magnetization       =     3.00 Bohr mag/cell
     absolute magnetization    =     3.14 Bohr mag/cell

     iteration # 21     ecut=    80.00 Ry     beta= 0.70
     Davidson diagonalization with overlap
     ethr =  7.57E-11,  avg # of iterations =  3.5

     total cpu time spent up to now is     1775.4 secs

     total energy              =   -5169.26226616 Ry
     Harris-Foulkes estimate   =   -5169.26226602 Ry
     estimated scf accuracy    <       0.00000004 Ry

     total magnetization       =     3.00 Bohr mag/cell
     absolute magnetization    =     3.14 Bohr mag/cell

     iteration # 22     ecut=    80.00 Ry     beta= 0.70
     Davidson diagonalization with overlap
     ethr =  2.65E-11,  avg # of iterations =  3.0

     total cpu time spent up to now is     1854.1 secs

     total energy              =   -5169.26226628 Ry
     Harris-Foulkes estimate   =   -5169.26226616 Ry
     estimated scf accuracy    <       0.00000001 Ry

     total magnetization       =     3.00 Bohr mag/cell
     absolute magnetization    =     3.14 Bohr mag/cell

     iteration # 23     ecut=    80.00 Ry     beta= 0.70
     Davidson diagonalization with overlap
     ethr =  9.94E-12,  avg # of iterations =  4.0
 
     Magnetic moment per site:
     atom:    1    charge:    9.2278    magn:    0.0512    constr:    0.0000
     atom:    2    charge:    9.2281    magn:    0.0703    constr:    0.0000
     atom:    3    charge:    9.2282    magn:    0.0703    constr:    0.0000
     atom:    4    charge:    9.2282    magn:    0.0703    constr:    0.0000
     atom:    5    charge:    9.2277    magn:    0.0511    constr:    0.0000
     atom:    6    charge:    9.2283    magn:    0.0703    constr:    0.0000
     atom:    7    charge:    9.2307    magn:    0.0279    constr:    0.0000
     atom:    8    charge:    9.3244    magn:    0.1106    constr:    0.0000
     atom:    9    charge:    9.2282    magn:    0.0703    constr:    0.0000
     atom:   10    charge:   12.6159    magn:    0.1155    constr:    0.0000
     atom:   11    charge:    9.2276    magn:    0.0511    constr:    0.0000
     atom:   12    charge:    9.2277    magn:    0.0512    constr:    0.0000
     atom:   13    charge:    9.2277    magn:    0.0511    constr:    0.0000

     total cpu time spent up to now is     1930.0 secs

     End of self-consistent calculation

 ------ SPIN UP ------------


          k = 0.0000 0.0000 0.0000 (163015 PWs)   bands (ev):

   -25.6114 -25.5882 -25.5882 -25.4984 -25.4983 -13.7515  -9.1737  -8.8656
    -8.8655  -8.8230  -8.8229  -8.7489  -7.9451  -7.9448  -7.8298  -7.8297
    -7.8063  -7.7836  -7.7012  -7.7011  -7.6865  -7.6865  -7.6332  -7.6330
    -7.5627  -7.5625  -7.4603  -7.4601  -7.4381  -7.4156  -7.3312  -7.3312
    -7.2972  -7.2969  -7.0291  -7.0168  -7.0104  -7.0100  -6.9971  -6.9967
    -6.9685  -6.9682  -6.7822  -6.7454  -6.7453  -6.6003  -6.6003  -6.4787
    -6.4786  -6.4609  -6.4609  -6.3834  -6.3444  -6.3443  -6.3400  -6.3397
    -6.3066  -6.3029  -6.3028  -6.2236  -6.2126  -6.2125  -6.1824  -6.1822
    -6.1412  -6.1411  -6.0719  -5.5359  -5.5357  -4.8971  -3.9148  -3.9148
    -3.1934  -3.1929  -3.1109  -2.0978  -1.8182  -1.8180  -1.5686  -1.1210
    -1.1194  -0.7881  -0.7859  -0.7258  -0.7248   0.1673   0.3595   0.3851
     0.3862

     occupation numbers 
     1.0000   1.0000   1.0000   1.0000   1.0000   1.0000   1.0000   1.0000
     1.0000   1.0000   1.0000   1.0000   1.0000   1.0000   1.0000   1.0000
     1.0000   1.0000   1.0000   1.0000   1.0000   1.0000   1.0000   1.0000
     1.0000   1.0000   1.0000   1.0000   1.0000   1.0000   1.0000   1.0000
     1.0000   1.0000   1.0000   1.0000   1.0000   1.0000   1.0000   1.0000
     1.0000   1.0000   1.0000   1.0000   1.0000   1.0000   1.0000   1.0000
     1.0000   1.0000   1.0000   1.0000   1.0000   1.0000   1.0000   1.0000
     1.0000   1.0000   1.0000   1.0000   1.0000   1.0000   1.0000   1.0000
     1.0000   1.0000   1.0000   1.0000   1.0000   1.0000   1.0000   1.0000
     1.0000   1.0000   1.0000   0.0000   0.0000   0.0000   0.0000   0.0000
     0.0000   0.0000   0.0000   0.0000   0.0000   0.0000   0.0000   0.0000
     0.0000

 ------ SPIN DOWN ----------


          k = 0.0000 0.0000 0.0000 (163015 PWs)   bands (ev):

   -25.5515 -25.5457 -25.5456 -25.4945 -25.4945 -13.5999  -9.1213  -8.7915
    -8.7914  -8.7800  -8.7798  -8.6802  -7.8876  -7.8873  -7.7706  -7.7704
    -7.7160  -7.6843  -7.6477  -7.6476  -7.6374  -7.6374  -7.5606  -7.5604
    -7.4998  -7.4996  -7.3917  -7.3732  -7.3730  -7.2948  -7.2672  -7.2671
    -7.2262  -7.2258  -6.9786  -6.9624  -6.9621  -6.9617  -6.9464  -6.9460
    -6.9223  -6.9220  -6.7104  -6.6825  -6.6824  -6.5347  -6.5346  -6.4282
    -6.4280  -6.4140  -6.4140  -6.3116  -6.2987  -6.2986  -6.2951  -6.2948
    -6.2546  -6.2545  -6.2465  -6.1680  -6.1632  -6.1632  -6.1239  -6.1237
    -6.0786  -6.0785  -6.0394  -5.3695  -5.3693  -4.7789  -3.7877  -3.7877
    -2.8686  -2.8682  -2.7701  -1.9572  -1.6300  -1.6299  -1.3412  -0.8867
    -0.8855  -0.5199  -0.5197  -0.4701  -0.4671   0.3092   0.4485   0.5963
     0.6023

     occupation numbers 
     1.0000   1.0000   1.0000   1.0000   1.0000   1.0000   1.0000   1.0000
     1.0000   1.0000   1.0000   1.0000   1.0000   1.0000   1.0000   1.0000
     1.0000   1.0000   1.0000   1.0000   1.0000   1.0000   1.0000   1.0000
     1.0000   1.0000   1.0000   1.0000   1.0000   1.0000   1.0000   1.0000
     1.0000   1.0000   1.0000   1.0000   1.0000   1.0000   1.0000   1.0000
     1.0000   1.0000   1.0000   1.0000   1.0000   1.0000   1.0000   1.0000
     1.0000   1.0000   1.0000   1.0000   1.0000   1.0000   1.0000   1.0000
     1.0000   1.0000   1.0000   1.0000   1.0000   1.0000   1.0000   1.0000
     1.0000   1.0000   1.0000   1.0000   1.0000   1.0000   1.0000   1.0000
     0.0000   0.0000   0.0000   0.0000   0.0000   0.0000   0.0000   0.0000
     0.0000   0.0000   0.0000   0.0000   0.0000   0.0000   0.0000   0.0000
     0.0000

     the Fermi energy is    -2.9929 ev

!    total energy              =   -5169.26226628 Ry
     Harris-Foulkes estimate   =   -5169.26226628 Ry
     estimated scf accuracy    <          5.4E-09 Ry

     total all-electron energy =   -170648.312928 Ry

     The total energy is the sum of the following terms:

     one-electron contribution =   -3777.01734807 Ry
     hartree contribution      =    1984.29673814 Ry
     xc contribution           =    -459.87891538 Ry
     ewald contribution        =     989.86276629 Ry
     one-center paw contrib.   =   -3906.52550719 Ry
      -> PAW hartree energy AE =      66.87707877 Ry
      -> PAW hartree energy PS =     -66.72956480 Ry
      -> PAW xc energy AE      =    -297.86703668 Ry
      -> PAW xc energy PS      =      35.22455648 Ry
      -> total E_H with PAW    =    1984.44425211 Ry
      -> total E_XC with PAW   =    -722.52139557 Ry
     smearing contrib. (-TS)   =      -0.00000008 Ry

     total magnetization       =     3.00 Bohr mag/cell
     absolute magnetization    =     3.14 Bohr mag/cell

     convergence has been achieved in  23 iterations

     Writing output data file ./tmp/ag12Bil.save/
 
     init_run     :     41.11s CPU     42.66s WALL (       1 calls)
     electrons    :   1831.52s CPU   1883.55s WALL (       1 calls)

     Called by init_run:
     wfcinit      :     16.80s CPU     17.04s WALL (       1 calls)
     wfcinit:atom :      0.10s CPU      0.13s WALL (       2 calls)
     wfcinit:wfcr :     16.45s CPU     16.59s WALL (       2 calls)
     potinit      :      7.05s CPU      7.37s WALL (       1 calls)
     hinit0       :      3.14s CPU      3.21s WALL (       1 calls)

     Called by electrons:
     c_bands      :    763.27s CPU    772.84s WALL (      23 calls)
     sum_band     :    649.79s CPU    670.75s WALL (      23 calls)
     v_of_rho     :     95.85s CPU     96.97s WALL (      24 calls)
     v_h          :      6.47s CPU      6.50s WALL (      24 calls)
     v_xc         :     89.38s CPU     90.47s WALL (      24 calls)
     newd         :    188.67s CPU    206.66s WALL (      24 calls)
     PAW_pot      :     30.56s CPU     31.07s WALL (      24 calls)
     mix_rho      :     97.54s CPU     99.82s WALL (      23 calls)

     Called by c_bands:
     init_us_2    :      4.00s CPU      4.07s WALL (      94 calls)
     regterg      :    742.12s CPU    751.53s WALL (      46 calls)

     Called by sum_band:
     sum_band:bec :      0.03s CPU      0.03s WALL (      46 calls)
     addusdens    :    486.73s CPU    506.81s WALL (      23 calls)

     Called by *egterg:
     h_psi        :    610.98s CPU    614.27s WALL (     299 calls)
     s_psi        :     41.53s CPU     41.63s WALL (     299 calls)
     g_psi        :      1.15s CPU      1.16s WALL (     251 calls)
     rdiaghg      :      7.78s CPU      8.23s WALL (     297 calls)
     regterg:over :     34.66s CPU     34.75s WALL (     251 calls)
     regterg:upda :     32.07s CPU     32.52s WALL (     251 calls)
     regterg:last :      9.31s CPU      9.34s WALL (      46 calls)
     rdiaghg:chol :      0.28s CPU      0.28s WALL (     297 calls)
     rdiaghg:inve :      0.22s CPU      0.22s WALL (     297 calls)
     rdiaghg:para :      0.69s CPU      0.70s WALL (     594 calls)

     Called by h_psi:
     h_psi:calbec :     26.65s CPU     26.75s WALL (     299 calls)
     vloc_psi     :    540.17s CPU    543.22s WALL (     299 calls)
     add_vuspsi   :     41.56s CPU     41.69s WALL (     299 calls)

     General routines
     calbec       :     34.94s CPU     35.08s WALL (     345 calls)
     fft          :    101.45s CPU    101.96s WALL (     497 calls)
     ffts         :     58.14s CPU     58.92s WALL (     576 calls)
     fftw         :    511.74s CPU    514.70s WALL (   11724 calls)
     interpolate  :     16.16s CPU     16.28s WALL (      48 calls)
 
     Parallel routines
     fft_scatt_xy :    107.14s CPU    107.82s WALL (   12797 calls)
     fft_scatt_yz :    187.87s CPU    189.14s WALL (   12797 calls)

     PAW routines
     PAW_pot      :     30.56s CPU     31.07s WALL (      24 calls)
 
     PWSCF        :  31m17.43s CPU  32m12.41s WALL

 
   This run was terminated on:   2:35:18   4Jan2021            

=------------------------------------------------------------------------------=
   JOB DONE.
=------------------------------------------------------------------------------=
