
     Program PROJWFC v.6.5 starts on  2Apr2021 at 14:15:13 

     This program is part of the open-source Quantum ESPRESSO suite
     for quantum simulation of materials; please cite
         "P. Giannozzi et al., J. Phys.:Condens. Matter 21 395502 (2009);
         "P. Giannozzi et al., J. Phys.:Condens. Matter 29 465901 (2017);
          URL http://www.quantum-espresso.org", 
     in publications or presentations arising from this work. More details at
     http://www.quantum-espresso.org/quote

     Parallel version (MPI & OpenMP), running on      24 processor cores
     Number of MPI processes:                24
     Threads/MPI process:                     1

     MPI processes distributed on     1 nodes
     R & G space division:  proc/nbgrp/npool/nimage =      24

     Reading xml data from directory:

     ./tmp/ag12Bic.save/
     Message from routine  set_nelup_neldw :
     BEWARE: non-integer number of up and down electrons!

     IMPORTANT: XC functional enforced from input :
     Exchange-correlation= PBE
                           (   1   4   3   4   0   0   0)
     Any further DFT definition will be discarded
     Please, verify this is what you really want

               file Ag.pbe-dn-kjpaw_psl.0.1.UPF: wavefunction(s)  5S 5P 4D renormalized
               file Bi.pbe-dn-kjpaw_psl.1.0.0.UPF: wavefunction(s)  6P 5D renormalized
 
     Parallelization info
     --------------------
     sticks:   dense  smooth     PW     G-vecs:    dense   smooth      PW
     Min        2516    2148    535               465600   367032   45855
     Max        2518    2150    538               465610   367046   45862
     Sum       60425   51577  12893             11174549  8808945 1100629
 
     Generating pointlists ...
     new r_m :   0.0499 (alat units)  2.2451 (a.u.) for type    1
     new r_m :   0.0499 (alat units)  2.2451 (a.u.) for type    2

     Check: negative core charge=   -0.000001

     Gaussian broadening (read from file): ngauss,degauss= -99    0.002000


     Calling projwave .... 
     linear algebra parallelized on  16 procs
     gamma-point specific algorithms are used
 
  Problem Sizes 
  natomwfc =          117
  nx       =           30
  nbnd     =           89
  nkstot   =            2
  npwx     =        22931
  nkb      =          234
 

     Atomic states used for projection
     (read from pseudopotential files):

     state #   1: atom   1 (Ag ), wfc  1 (l=0 m= 1)
     state #   2: atom   1 (Ag ), wfc  2 (l=1 m= 1)
     state #   3: atom   1 (Ag ), wfc  2 (l=1 m= 2)
     state #   4: atom   1 (Ag ), wfc  2 (l=1 m= 3)
     state #   5: atom   1 (Ag ), wfc  3 (l=2 m= 1)
     state #   6: atom   1 (Ag ), wfc  3 (l=2 m= 2)
     state #   7: atom   1 (Ag ), wfc  3 (l=2 m= 3)
     state #   8: atom   1 (Ag ), wfc  3 (l=2 m= 4)
     state #   9: atom   1 (Ag ), wfc  3 (l=2 m= 5)
     state #  10: atom   2 (Ag ), wfc  1 (l=0 m= 1)
     state #  11: atom   2 (Ag ), wfc  2 (l=1 m= 1)
     state #  12: atom   2 (Ag ), wfc  2 (l=1 m= 2)
     state #  13: atom   2 (Ag ), wfc  2 (l=1 m= 3)
     state #  14: atom   2 (Ag ), wfc  3 (l=2 m= 1)
     state #  15: atom   2 (Ag ), wfc  3 (l=2 m= 2)
     state #  16: atom   2 (Ag ), wfc  3 (l=2 m= 3)
     state #  17: atom   2 (Ag ), wfc  3 (l=2 m= 4)
     state #  18: atom   2 (Ag ), wfc  3 (l=2 m= 5)
     state #  19: atom   3 (Ag ), wfc  1 (l=0 m= 1)
     state #  20: atom   3 (Ag ), wfc  2 (l=1 m= 1)
     state #  21: atom   3 (Ag ), wfc  2 (l=1 m= 2)
     state #  22: atom   3 (Ag ), wfc  2 (l=1 m= 3)
     state #  23: atom   3 (Ag ), wfc  3 (l=2 m= 1)
     state #  24: atom   3 (Ag ), wfc  3 (l=2 m= 2)
     state #  25: atom   3 (Ag ), wfc  3 (l=2 m= 3)
     state #  26: atom   3 (Ag ), wfc  3 (l=2 m= 4)
     state #  27: atom   3 (Ag ), wfc  3 (l=2 m= 5)
     state #  28: atom   4 (Ag ), wfc  1 (l=0 m= 1)
     state #  29: atom   4 (Ag ), wfc  2 (l=1 m= 1)
     state #  30: atom   4 (Ag ), wfc  2 (l=1 m= 2)
     state #  31: atom   4 (Ag ), wfc  2 (l=1 m= 3)
     state #  32: atom   4 (Ag ), wfc  3 (l=2 m= 1)
     state #  33: atom   4 (Ag ), wfc  3 (l=2 m= 2)
     state #  34: atom   4 (Ag ), wfc  3 (l=2 m= 3)
     state #  35: atom   4 (Ag ), wfc  3 (l=2 m= 4)
     state #  36: atom   4 (Ag ), wfc  3 (l=2 m= 5)
     state #  37: atom   5 (Ag ), wfc  1 (l=0 m= 1)
     state #  38: atom   5 (Ag ), wfc  2 (l=1 m= 1)
     state #  39: atom   5 (Ag ), wfc  2 (l=1 m= 2)
     state #  40: atom   5 (Ag ), wfc  2 (l=1 m= 3)
     state #  41: atom   5 (Ag ), wfc  3 (l=2 m= 1)
     state #  42: atom   5 (Ag ), wfc  3 (l=2 m= 2)
     state #  43: atom   5 (Ag ), wfc  3 (l=2 m= 3)
     state #  44: atom   5 (Ag ), wfc  3 (l=2 m= 4)
     state #  45: atom   5 (Ag ), wfc  3 (l=2 m= 5)
     state #  46: atom   6 (Ag ), wfc  1 (l=0 m= 1)
     state #  47: atom   6 (Ag ), wfc  2 (l=1 m= 1)
     state #  48: atom   6 (Ag ), wfc  2 (l=1 m= 2)
     state #  49: atom   6 (Ag ), wfc  2 (l=1 m= 3)
     state #  50: atom   6 (Ag ), wfc  3 (l=2 m= 1)
     state #  51: atom   6 (Ag ), wfc  3 (l=2 m= 2)
     state #  52: atom   6 (Ag ), wfc  3 (l=2 m= 3)
     state #  53: atom   6 (Ag ), wfc  3 (l=2 m= 4)
     state #  54: atom   6 (Ag ), wfc  3 (l=2 m= 5)
     state #  55: atom   7 (Ag ), wfc  1 (l=0 m= 1)
     state #  56: atom   7 (Ag ), wfc  2 (l=1 m= 1)
     state #  57: atom   7 (Ag ), wfc  2 (l=1 m= 2)
     state #  58: atom   7 (Ag ), wfc  2 (l=1 m= 3)
     state #  59: atom   7 (Ag ), wfc  3 (l=2 m= 1)
     state #  60: atom   7 (Ag ), wfc  3 (l=2 m= 2)
     state #  61: atom   7 (Ag ), wfc  3 (l=2 m= 3)
     state #  62: atom   7 (Ag ), wfc  3 (l=2 m= 4)
     state #  63: atom   7 (Ag ), wfc  3 (l=2 m= 5)
     state #  64: atom   8 (Bi ), wfc  1 (l=0 m= 1)
     state #  65: atom   8 (Bi ), wfc  2 (l=1 m= 1)
     state #  66: atom   8 (Bi ), wfc  2 (l=1 m= 2)
     state #  67: atom   8 (Bi ), wfc  2 (l=1 m= 3)
     state #  68: atom   8 (Bi ), wfc  3 (l=2 m= 1)
     state #  69: atom   8 (Bi ), wfc  3 (l=2 m= 2)
     state #  70: atom   8 (Bi ), wfc  3 (l=2 m= 3)
     state #  71: atom   8 (Bi ), wfc  3 (l=2 m= 4)
     state #  72: atom   8 (Bi ), wfc  3 (l=2 m= 5)
     state #  73: atom   9 (Ag ), wfc  1 (l=0 m= 1)
     state #  74: atom   9 (Ag ), wfc  2 (l=1 m= 1)
     state #  75: atom   9 (Ag ), wfc  2 (l=1 m= 2)
     state #  76: atom   9 (Ag ), wfc  2 (l=1 m= 3)
     state #  77: atom   9 (Ag ), wfc  3 (l=2 m= 1)
     state #  78: atom   9 (Ag ), wfc  3 (l=2 m= 2)
     state #  79: atom   9 (Ag ), wfc  3 (l=2 m= 3)
     state #  80: atom   9 (Ag ), wfc  3 (l=2 m= 4)
     state #  81: atom   9 (Ag ), wfc  3 (l=2 m= 5)
     state #  82: atom  10 (Ag ), wfc  1 (l=0 m= 1)
     state #  83: atom  10 (Ag ), wfc  2 (l=1 m= 1)
     state #  84: atom  10 (Ag ), wfc  2 (l=1 m= 2)
     state #  85: atom  10 (Ag ), wfc  2 (l=1 m= 3)
     state #  86: atom  10 (Ag ), wfc  3 (l=2 m= 1)
     state #  87: atom  10 (Ag ), wfc  3 (l=2 m= 2)
     state #  88: atom  10 (Ag ), wfc  3 (l=2 m= 3)
     state #  89: atom  10 (Ag ), wfc  3 (l=2 m= 4)
     state #  90: atom  10 (Ag ), wfc  3 (l=2 m= 5)
     state #  91: atom  11 (Ag ), wfc  1 (l=0 m= 1)
     state #  92: atom  11 (Ag ), wfc  2 (l=1 m= 1)
     state #  93: atom  11 (Ag ), wfc  2 (l=1 m= 2)
     state #  94: atom  11 (Ag ), wfc  2 (l=1 m= 3)
     state #  95: atom  11 (Ag ), wfc  3 (l=2 m= 1)
     state #  96: atom  11 (Ag ), wfc  3 (l=2 m= 2)
     state #  97: atom  11 (Ag ), wfc  3 (l=2 m= 3)
     state #  98: atom  11 (Ag ), wfc  3 (l=2 m= 4)
     state #  99: atom  11 (Ag ), wfc  3 (l=2 m= 5)
     state # 100: atom  12 (Ag ), wfc  1 (l=0 m= 1)
     state # 101: atom  12 (Ag ), wfc  2 (l=1 m= 1)
     state # 102: atom  12 (Ag ), wfc  2 (l=1 m= 2)
     state # 103: atom  12 (Ag ), wfc  2 (l=1 m= 3)
     state # 104: atom  12 (Ag ), wfc  3 (l=2 m= 1)
     state # 105: atom  12 (Ag ), wfc  3 (l=2 m= 2)
     state # 106: atom  12 (Ag ), wfc  3 (l=2 m= 3)
     state # 107: atom  12 (Ag ), wfc  3 (l=2 m= 4)
     state # 108: atom  12 (Ag ), wfc  3 (l=2 m= 5)
     state # 109: atom  13 (Ag ), wfc  1 (l=0 m= 1)
     state # 110: atom  13 (Ag ), wfc  2 (l=1 m= 1)
     state # 111: atom  13 (Ag ), wfc  2 (l=1 m= 2)
     state # 112: atom  13 (Ag ), wfc  2 (l=1 m= 3)
     state # 113: atom  13 (Ag ), wfc  3 (l=2 m= 1)
     state # 114: atom  13 (Ag ), wfc  3 (l=2 m= 2)
     state # 115: atom  13 (Ag ), wfc  3 (l=2 m= 3)
     state # 116: atom  13 (Ag ), wfc  3 (l=2 m= 4)
     state # 117: atom  13 (Ag ), wfc  3 (l=2 m= 5)

 k =   0.0000000000  0.0000000000  0.0000000000
==== e(   1) =   -27.58284 eV ==== 
     psi = 0.604*[#  69]+0.198*[#  71]+0.179*[#  68]+0.014*[#  70]
    |psi|^2 = 1.000
==== e(   2) =   -27.58281 eV ==== 
     psi = 0.502*[#  71]+0.283*[#  69]+0.168*[#  72]+0.037*[#  68]+0.007*[#  70]
          
    |psi|^2 = 1.000
==== e(   3) =   -27.58278 eV ==== 
     psi = 0.522*[#  68]+0.343*[#  72]+0.098*[#  69]+0.029*[#  70]+0.005*[#  71]
          
    |psi|^2 = 1.000
==== e(   4) =   -27.58277 eV ==== 
     psi = 0.728*[#  70]+0.202*[#  72]+0.037*[#  68]+0.020*[#  71]+0.010*[#  69]
          
    |psi|^2 = 1.000
==== e(   5) =   -27.58273 eV ==== 
     psi = 0.283*[#  72]+0.271*[#  71]+0.221*[#  68]+0.219*[#  70]+0.002*[#  69]
          
    |psi|^2 = 1.000
==== e(   6) =   -16.32491 eV ==== 
     psi = 0.568*[#  64]+0.024*[#  21]+0.024*[#  93]+0.024*[#  76]+0.024*[# 112]
          +0.019*[#  29]+0.019*[# 101]+0.017*[#  11]+0.017*[#  38]+0.011*[#   3]
          +0.011*[#  48]+0.010*[#   4]+0.010*[#  49]+0.010*[#  56]+0.010*[#  83]
          +0.008*[#  58]+0.008*[#  85]+0.007*[#  57]+0.007*[#  84]+0.006*[#  12]
          +0.006*[#  39]+0.006*[#   1]+0.006*[#  10]+0.006*[#  19]+0.006*[#  28]
          +0.006*[#  37]+0.006*[#  46]+0.006*[#  55]+0.006*[#  73]+0.006*[#  82]
          +0.006*[#  91]+0.006*[# 100]+0.006*[# 109]+0.005*[#  31]+0.005*[# 103]
          +0.004*[#   2]+0.004*[#  47]+0.003*[#  26]+0.003*[#  98]+0.003*[#  80]
          +0.003*[# 116]+0.003*[#   9]+0.003*[#  54]+0.002*[#  15]+0.002*[#  42]
          +0.002*[#  13]+0.002*[#  40]+0.002*[#  34]+0.002*[# 106]+0.002*[#  61]
          +0.002*[#  88]+0.002*[#  30]+0.002*[#  32]+0.002*[# 102]+0.002*[# 104]
          +0.002*[#  60]+0.002*[#  87]+0.001*[#  14]+0.001*[#  41]+0.002*[#  75]
          +0.002*[# 111]+0.001*[#  63]+0.001*[#  90]+0.001*[#  22]+0.001*[#  23]
          +0.001*[#  77]+0.001*[#  94]+0.001*[#  95]+0.001*[# 113]+0.001*[#   6]
          +0.001*[#   7]
    |psi|^2 = 1.000
==== e(   7) =    -9.86029 eV ==== 
     psi = 0.276*[#  67]+0.034*[#  66]+0.026*[#  81]+0.026*[# 117]+0.022*[#   9]
          +0.022*[#  54]+0.022*[#  27]+0.022*[#  99]+0.020*[#   1]+0.020*[#  46]
          +0.019*[#   6]+0.019*[#  51]+0.017*[#  60]+0.017*[#  73]+0.017*[#  87]
          +0.017*[# 109]+0.015*[#  32]+0.015*[# 104]+0.014*[#  33]+0.014*[# 105]
          +0.013*[#  16]+0.013*[#  43]+0.013*[#  80]+0.013*[# 116]+0.012*[#  59]
          +0.012*[#  86]+0.010*[#  77]+0.010*[# 113]+0.009*[#   7]+0.009*[#  52]
          +0.009*[#  55]+0.009*[#  82]+0.008*[#  56]+0.008*[#  83]+0.008*[#  65]
          +0.008*[#   3]+0.008*[#  22]+0.008*[#  48]+0.008*[#  94]+0.007*[#  13]
          +0.007*[#  40]+0.007*[#  61]+0.007*[#  88]+0.006*[#  76]+0.006*[# 112]
          +0.005*[#  28]+0.005*[# 100]+0.005*[#  75]+0.005*[# 111]+0.005*[#  17]
          +0.005*[#  44]+0.004*[#  29]+0.004*[# 101]+0.004*[#   8]+0.004*[#  53]
          +0.004*[#  35]+0.004*[# 107]+0.003*[#   2]+0.003*[#  47]+0.003*[#  18]
          +0.003*[#  30]+0.003*[#  45]+0.003*[# 102]+0.003*[#  15]+0.003*[#  42]
          +0.002*[#  26]+0.002*[#  98]+0.002*[#  62]+0.002*[#  89]+0.002*[#  79]
          +0.002*[# 115]+0.002*[#  31]+0.002*[# 103]+0.001*[#   5]+0.001*[#  14]
          +0.001*[#  41]+0.001*[#  50]+0.001*[#  57]+0.001*[#  84]+0.001*[#   4]
          +0.001*[#  49]
    |psi|^2 = 0.999
==== e(   8) =    -9.86024 eV ==== 
     psi = 0.199*[#  66]+0.078*[#  65]+0.042*[#  67]+0.030*[#  14]+0.030*[#  41]
          +0.027*[#  80]+0.027*[# 116]+0.026*[#  26]+0.026*[#  98]+0.021*[#  10]
          +0.021*[#  37]+0.016*[#  19]+0.016*[#  91]+0.016*[#  15]+0.016*[#  42]
          +0.015*[#  24]+0.015*[#  96]+0.014*[#   8]+0.014*[#  53]+0.012*[#   9]
          +0.012*[#  54]+0.011*[#  11]+0.011*[#  38]+0.010*[#  32]+0.010*[# 104]
          +0.010*[#  16]+0.010*[#  43]+0.009*[#  62]+0.009*[#  89]+0.009*[#   4]
          +0.009*[#  33]+0.009*[#  49]+0.009*[# 105]+0.008*[#  73]+0.008*[# 109]
          +0.008*[#  21]+0.008*[#  93]+0.007*[#  23]+0.007*[#  95]+0.007*[#  57]
          +0.007*[#  84]+0.006*[#  76]+0.006*[# 112]+0.006*[#  77]+0.006*[# 113]
          +0.006*[#   1]+0.006*[#  46]+0.006*[#  36]+0.006*[# 108]+0.005*[#  30]
          +0.005*[# 102]+0.005*[#  59]+0.005*[#  86]+0.004*[#   7]+0.004*[#  52]
          +0.004*[#  60]+0.004*[#  87]+0.004*[#   5]+0.004*[#  50]+0.004*[#  63]
          +0.004*[#  90]+0.004*[#  20]+0.004*[#  79]+0.004*[#  92]+0.004*[# 115]
          +0.003*[#  61]+0.003*[#  88]+0.002*[#  27]+0.002*[#  99]+0.002*[#  75]
          +0.002*[# 111]+0.002*[#  74]+0.002*[# 110]+0.001*[#  31]+0.001*[# 103]
          +0.001*[#  29]+0.001*[# 101]+0.001*[#  18]+0.001*[#  45]+0.001*[#  81]
          +0.001*[# 117]
    |psi|^2 = 0.999
==== e(   9) =    -9.86008 eV ==== 
     psi = 0.232*[#  65]+0.086*[#  66]+0.035*[#  34]+0.035*[# 106]+0.021*[#  61]
          +0.021*[#  88]+0.021*[#  28]+0.021*[# 100]+0.019*[#  15]+0.019*[#  42]
          +0.018*[#  63]+0.018*[#  79]+0.018*[#  90]+0.018*[# 115]+0.016*[#  55]
          +0.016*[#  82]+0.015*[#  26]+0.015*[#  98]+0.014*[#  32]+0.014*[# 104]
          +0.009*[#   5]+0.009*[#  19]+0.009*[#  24]+0.009*[#  91]+0.009*[#  96]
          +0.009*[#  23]+0.009*[#  50]+0.009*[#  58]+0.009*[#  85]+0.009*[#  95]
          +0.008*[#  12]+0.008*[#  39]+0.007*[#   7]+0.007*[#  52]+0.006*[#  29]
          +0.006*[# 101]+0.006*[#  60]+0.006*[#  74]+0.006*[#  87]+0.006*[# 110]
          +0.006*[#  18]+0.006*[#  45]+0.006*[#  31]+0.006*[# 103]+0.005*[#   2]
          +0.005*[#  47]+0.005*[#  27]+0.005*[#  99]+0.005*[#  10]+0.005*[#  21]
          +0.005*[#  37]+0.005*[#  93]+0.004*[#  20]+0.004*[#  92]+0.004*[#  17]
          +0.004*[#  44]+0.004*[#   9]+0.004*[#  54]+0.004*[#  62]+0.004*[#  89]
          +0.003*[#  81]+0.003*[# 117]+0.003*[#   8]+0.003*[#  35]+0.003*[#  53]
          +0.003*[# 107]+0.003*[#  80]+0.003*[# 116]+0.003*[#  33]+0.003*[# 105]
          +0.003*[#   3]+0.003*[#  14]+0.003*[#  41]+0.003*[#  48]+0.002*[#   6]
          +0.002*[#  16]+0.002*[#  43]+0.002*[#  51]+0.002*[#  36]+0.002*[# 108]
          +0.002*[#  57]+0.002*[#  59]+0.002*[#  75]+0.002*[#  84]+0.002*[# 111]
          +0.001*[#  86]
    |psi|^2 = 0.999
==== e(  10) =    -8.58398 eV ==== 
     psi = 0.118*[#  81]+0.116*[# 117]+0.086*[#  53]+0.086*[#   8]+0.035*[#  51]
          +0.034*[#   6]+0.033*[#  41]+0.033*[#  14]+0.031*[#  24]+0.031*[#  96]
          +0.027*[#  80]+0.026*[#  86]+0.026*[# 116]+0.025*[#  59]+0.019*[#  50]
          +0.019*[#   5]+0.016*[#  87]+0.016*[#  60]+0.013*[#  42]+0.013*[#  15]
          +0.011*[#  33]+0.011*[# 105]+0.009*[#  26]+0.009*[#  98]+0.007*[#  19]
          +0.007*[#  91]+0.006*[#  99]+0.006*[#  27]+0.006*[#  43]+0.006*[#  10]
          +0.006*[#  16]+0.005*[#  37]+0.005*[# 115]+0.005*[#  79]+0.005*[#  34]
          +0.005*[#  89]+0.004*[#  44]+0.004*[#  17]+0.004*[#  55]+0.004*[#  62]
          +0.004*[#  82]+0.004*[# 106]+0.003*[#  75]+0.003*[# 111]+0.003*[#  23]
          +0.003*[#  88]+0.003*[#  95]+0.003*[#  61]+0.002*[#  36]+0.002*[# 108]
          +0.002*[#   1]+0.002*[#  46]+0.002*[#  73]+0.002*[# 109]+0.002*[#  90]
          +0.001*[#  11]+0.001*[#  38]+0.001*[#  63]+0.001*[#   3]+0.001*[#   9]
          +0.001*[#  48]+0.001*[#  54]+0.001*[#  56]+0.001*[#  83]+0.001*[#   2]
          
    |psi|^2 = 0.995
==== e(  11) =    -8.58385 eV ==== 
     psi = 0.097*[#  96]+0.096*[#  24]+0.071*[#  62]+0.071*[#  89]+0.067*[#  79]
          +0.065*[# 115]+0.056*[#  14]+0.055*[#  41]+0.034*[#  18]+0.033*[#  45]
          +0.023*[#  59]+0.023*[#  60]+0.023*[#  87]+0.023*[#  86]+0.017*[#  34]
          +0.017*[# 106]+0.016*[#  16]+0.015*[#   6]+0.015*[#  43]+0.015*[#  51]
          +0.014*[#  28]+0.014*[# 100]+0.010*[#  63]+0.010*[#  90]+0.006*[#  61]
          +0.006*[#  88]+0.005*[#  73]+0.005*[# 109]+0.005*[#  77]+0.005*[# 113]
          +0.005*[#   9]+0.005*[#  54]+0.004*[#  27]+0.004*[#  99]+0.004*[#   5]
          +0.004*[#  50]+0.003*[#   8]+0.003*[#  53]+0.003*[# 107]+0.003*[#  35]
          +0.002*[#  20]+0.002*[#  58]+0.002*[#  85]+0.002*[#  92]+0.002*[#   7]
          +0.002*[#  10]+0.002*[#  37]+0.002*[#  52]+0.002*[#  81]+0.002*[# 105]
          +0.002*[# 117]+0.001*[#  33]+0.001*[#  11]+0.001*[#  38]+0.001*[#  74]
          +0.001*[# 110]+0.001*[#  29]+0.001*[#  31]+0.001*[#  98]+0.001*[# 101]
          +0.001*[# 103]+0.001*[#  26]
    |psi|^2 = 0.995
==== e(  12) =    -8.58379 eV ==== 
     psi = 0.071*[#  16]+0.071*[#  43]+0.064*[#  33]+0.062*[# 105]+0.047*[#  17]
          +0.046*[#  44]+0.037*[#  35]+0.036*[# 107]+0.032*[#  24]+0.032*[#  96]
          +0.032*[#  86]+0.031*[#  59]+0.023*[#  79]+0.022*[# 115]+0.019*[#   5]
          +0.018*[#  50]+0.018*[#  15]+0.018*[#  42]+0.016*[#  25]+0.016*[#  97]
          +0.016*[#  27]+0.015*[#  99]+0.014*[#   1]+0.014*[#  46]+0.014*[#  78]
          +0.014*[# 114]+0.013*[# 106]+0.013*[#  34]+0.012*[#   9]+0.012*[#  54]
          +0.009*[#  26]+0.009*[# 117]+0.008*[#  98]+0.008*[#  81]+0.008*[# 116]
          +0.008*[#  80]+0.007*[#  18]+0.006*[#  45]+0.005*[#  55]+0.005*[#  82]
          +0.005*[#  36]+0.005*[#   6]+0.005*[# 108]+0.005*[#  51]+0.004*[#  63]
          +0.004*[#  90]+0.002*[#  13]+0.002*[#  40]+0.002*[#  53]+0.002*[#  87]
          +0.002*[#   8]+0.002*[#  30]+0.002*[#  60]+0.002*[# 102]+0.002*[#  32]
          +0.002*[#   4]+0.002*[#  49]+0.002*[#  23]+0.001*[#  73]+0.002*[#  95]
          +0.002*[# 104]+0.001*[#   7]+0.001*[# 109]+0.001*[#  52]
    |psi|^2 = 0.995
==== e(  13) =    -8.58366 eV ==== 
     psi = 0.120*[#  27]+0.120*[#  99]+0.062*[#   8]+0.062*[#  53]+0.050*[#  32]
          +0.050*[# 104]+0.042*[# 115]+0.041*[#  79]+0.033*[#  34]+0.033*[# 106]
          +0.027*[#  52]+0.027*[#   7]+0.027*[#   5]+0.026*[#  50]+0.022*[#  26]
          +0.021*[#  98]+0.014*[#  61]+0.014*[#  88]+0.012*[#  80]+0.012*[# 116]
          +0.011*[#  35]+0.011*[# 107]+0.009*[#  73]+0.008*[#  81]+0.009*[# 109]
          +0.008*[# 117]+0.008*[#  55]+0.008*[#  82]+0.007*[#  16]+0.007*[#  43]
          +0.006*[#  59]+0.006*[#  86]+0.004*[#  33]+0.004*[#  62]+0.004*[#  89]
          +0.004*[# 105]+0.004*[#  78]+0.004*[# 114]+0.004*[#  60]+0.004*[#  87]
          +0.003*[#  14]+0.003*[#  28]+0.003*[#  41]+0.003*[# 100]+0.003*[#  22]
          +0.003*[#  94]+0.002*[#  17]+0.002*[#  44]+0.001*[#  29]+0.001*[#  76]
          +0.001*[# 101]+0.001*[# 112]+0.001*[#   9]
    |psi|^2 = 0.995
==== e(  14) =    -8.58363 eV ==== 
     psi = 0.056*[# 104]+0.056*[#  32]+0.049*[#  86]+0.048*[#  59]+0.036*[#  36]
          +0.036*[# 108]+0.035*[#  79]+0.035*[#  90]+0.035*[#  63]+0.035*[# 115]
          +0.032*[#  52]+0.031*[#  89]+0.031*[# 105]+0.031*[#   7]+0.031*[#  62]
          +0.031*[#  33]+0.029*[#  14]+0.028*[#  41]+0.027*[#  15]+0.026*[#  42]
          +0.021*[#  88]+0.021*[#  61]+0.012*[#  50]+0.012*[#  54]+0.012*[#   9]
          +0.012*[#   5]+0.010*[#  10]+0.010*[#  37]+0.009*[#  19]+0.009*[#  91]
          +0.009*[#  45]+0.009*[#  18]+0.008*[#  23]+0.008*[#  24]+0.008*[#  95]
          +0.008*[#  96]+0.007*[#  51]+0.007*[#   6]+0.007*[#  17]+0.007*[#  44]
          +0.006*[#  81]+0.006*[# 117]+0.004*[#  34]+0.004*[# 106]+0.003*[#  77]
          +0.003*[#  87]+0.003*[#  60]+0.003*[# 113]+0.003*[#  27]+0.002*[#  12]
          +0.002*[#  39]+0.002*[#  99]+0.002*[#  57]+0.002*[#  84]+0.002*[#  30]
          +0.002*[# 102]+0.001*[#  35]+0.001*[#   2]+0.001*[#  21]+0.001*[#  47]
          +0.001*[#  93]+0.001*[# 107]
    |psi|^2 = 0.995
==== e(  15) =    -8.56212 eV ==== 
     psi = 0.082*[#  99]+0.080*[#  27]+0.041*[#   7]+0.041*[#  52]+0.038*[# 115]
          +0.038*[#  62]+0.038*[# 117]+0.037*[#  81]+0.036*[#  79]+0.036*[#  89]
          +0.031*[#  59]+0.030*[#  86]+0.023*[#  61]+0.023*[#  98]+0.023*[#  26]
          +0.023*[#  88]+0.022*[#  44]+0.022*[#  50]+0.022*[#  60]+0.022*[#   5]
          +0.021*[#  17]+0.021*[#  87]+0.018*[# 105]+0.018*[#  32]+0.018*[#  33]
          +0.018*[# 104]+0.016*[#  45]+0.015*[#  18]+0.015*[#  43]+0.015*[#  42]
          +0.014*[#  15]+0.014*[#  16]+0.009*[#  54]+0.009*[#   9]+0.007*[# 107]
          +0.006*[#  35]+0.005*[#  63]+0.005*[#  90]+0.004*[#   8]+0.004*[#  53]
          +0.003*[#  77]+0.003*[# 113]+0.003*[#  80]+0.002*[# 116]+0.002*[#  34]
          +0.002*[# 106]+0.001*[#  51]+0.001*[#   6]+0.001*[#  23]+0.001*[#  95]
          
    |psi|^2 = 0.994
==== e(  16) =    -8.56208 eV ==== 
     psi = 0.103*[#   8]+0.103*[#  53]+0.067*[#  43]+0.067*[#  16]+0.061*[# 115]
          +0.061*[#  79]+0.056*[# 117]+0.056*[#  81]+0.035*[#  27]+0.034*[#  99]
          +0.023*[#  51]+0.023*[#   6]+0.022*[#  80]+0.022*[# 116]+0.017*[#  41]
          +0.017*[#  14]+0.014*[#  25]+0.015*[#  97]+0.014*[# 106]+0.013*[#  34]
          +0.010*[# 104]+0.010*[#  32]+0.009*[#  36]+0.009*[# 108]+0.009*[#  78]
          +0.009*[# 114]+0.007*[#  45]+0.007*[#  18]+0.007*[#  33]+0.007*[# 105]
          +0.007*[#  26]+0.007*[#  98]+0.007*[#  15]+0.007*[#  42]+0.006*[#  62]
          +0.006*[#  17]+0.006*[#  89]+0.006*[#  44]+0.004*[#   9]+0.004*[#  54]
          +0.004*[#  61]+0.004*[#  88]+0.003*[#  86]+0.003*[#  59]+0.001*[#   7]
          +0.001*[#  52]
    |psi|^2 = 0.994
==== e(  17) =    -8.56197 eV ==== 
     psi = 0.060*[# 104]+0.059*[#  32]+0.054*[#  59]+0.053*[#  86]+0.048*[#  14]
          +0.047*[#  41]+0.041*[#  96]+0.041*[#  79]+0.040*[# 115]+0.040*[#  24]
          +0.038*[#  63]+0.037*[#  90]+0.033*[#   5]+0.033*[#  50]+0.026*[#  17]
          +0.025*[#  44]+0.021*[#  35]+0.021*[# 107]+0.020*[# 106]+0.020*[#  34]
          +0.018*[#  45]+0.018*[#  18]+0.013*[#  15]+0.013*[#  42]+0.013*[# 108]
          +0.013*[#  36]+0.013*[#  95]+0.012*[#  23]+0.010*[#   6]+0.009*[#  51]
          +0.009*[#  60]+0.009*[# 117]+0.009*[#  87]+0.008*[#  81]+0.008*[# 116]
          +0.007*[#  80]+0.007*[#  77]+0.007*[# 113]+0.006*[#   8]+0.005*[#  53]
          +0.004*[#  99]+0.004*[#  27]+0.002*[#  33]+0.002*[# 105]+0.002*[#  16]
          +0.001*[#  43]+0.001*[#  61]+0.001*[#  88]
    |psi|^2 = 0.994
==== e(  18) =    -8.56187 eV ==== 
     psi = 0.098*[#  24]+0.097*[#  96]+0.065*[# 105]+0.064*[#  33]+0.052*[#  89]
          +0.051*[#  62]+0.034*[#  41]+0.033*[#  14]+0.027*[#  59]+0.026*[#  86]
          +0.024*[#  34]+0.023*[# 106]+0.020*[#  35]+0.020*[# 107]+0.020*[#   6]
          +0.020*[#  51]+0.019*[#  36]+0.019*[# 108]+0.016*[#  53]+0.016*[#   8]
          +0.016*[# 117]+0.015*[#  81]+0.013*[#   5]+0.013*[#  50]+0.013*[#  15]
          +0.013*[#  78]+0.013*[#  42]+0.013*[# 114]+0.012*[#  54]+0.012*[#   9]
          +0.010*[#   7]+0.010*[#  52]+0.010*[#  87]+0.010*[#  60]+0.009*[#  88]
          +0.009*[#  61]+0.006*[# 116]+0.006*[#  80]+0.005*[#  25]+0.005*[#  97]
          +0.004*[#  45]+0.004*[#  18]+0.003*[#  27]+0.003*[#  79]+0.003*[#  99]
          +0.003*[# 115]+0.002*[#  26]+0.002*[#  98]+0.001*[#  17]+0.001*[#  44]
          +0.001*[#  32]+0.001*[# 104]
    |psi|^2 = 0.994
==== e(  19) =    -8.37589 eV ==== 
     psi = 0.078*[#  18]+0.078*[#  45]+0.068*[#  97]+0.068*[#  25]+0.060*[#  77]
          +0.060*[# 113]+0.031*[#  90]+0.031*[#  63]+0.030*[#  78]+0.030*[# 114]
          +0.025*[#   7]+0.025*[#  52]+0.024*[#  88]+0.023*[#  61]+0.019*[#  62]
          +0.020*[#  89]+0.017*[#  80]+0.017*[# 116]+0.015*[#  86]+0.015*[#  34]
          +0.015*[#  59]+0.015*[# 106]+0.013*[#  51]+0.013*[#   6]+0.012*[#  16]
          +0.012*[#  43]+0.010*[#  14]+0.010*[#  41]+0.010*[#   9]+0.009*[#  15]
          +0.010*[#  54]+0.009*[#  26]+0.009*[#  42]+0.009*[#  98]+0.007*[#   8]
          +0.007*[#  53]+0.007*[#  81]+0.007*[# 117]+0.005*[#  36]+0.005*[# 108]
          +0.005*[#  17]+0.005*[#  44]+0.004*[#  60]+0.004*[#  87]+0.004*[#  28]
          +0.004*[# 100]+0.004*[#  35]+0.004*[# 107]+0.003*[#  33]+0.003*[# 105]
          +0.003*[#  24]+0.003*[#  96]+0.003*[#   1]+0.003*[#  46]+0.002*[#  19]
          +0.002*[#  23]+0.002*[#  91]+0.002*[#  95]+0.001*[#  55]
    |psi|^2 = 0.999
==== e(  20) =    -8.37582 eV ==== 
     psi = 0.079*[# 114]+0.079*[#  78]+0.072*[#  36]+0.072*[# 108]+0.040*[#  25]
          +0.040*[#  97]+0.034*[#   7]+0.034*[#  52]+0.027*[#  61]+0.027*[#  88]
          +0.023*[#  33]+0.023*[# 105]+0.022*[#   9]+0.022*[#  54]+0.021*[#  77]
          +0.021*[# 113]+0.019*[#  62]+0.020*[#  89]+0.017*[#   5]+0.017*[#  50]
          +0.016*[#  26]+0.016*[#  98]+0.015*[#   6]+0.015*[#  51]+0.015*[#  23]
          +0.015*[#  95]+0.013*[#  35]+0.013*[# 107]+0.013*[#  16]+0.012*[#  43]
          +0.010*[#  17]+0.010*[#  44]+0.009*[#   8]+0.009*[#  53]+0.008*[#  80]
          +0.008*[# 116]+0.007*[#  60]+0.007*[#  87]+0.007*[#  27]+0.007*[#  99]
          +0.006*[#  79]+0.006*[# 115]+0.004*[#  10]+0.004*[#  37]+0.004*[#  63]
          +0.004*[#  90]+0.004*[#  32]+0.004*[# 104]+0.003*[#  55]+0.003*[#  82]
          +0.002*[#  14]+0.002*[#  41]+0.002*[#  19]+0.002*[#  91]+0.002*[#  15]
          +0.001*[#  18]+0.001*[#  24]+0.002*[#  42]+0.001*[#  45]+0.001*[#  96]
          +0.001*[#  81]+0.001*[# 117]
    |psi|^2 = 0.999
==== e(  21) =    -8.37581 eV ==== 
     psi = 0.072*[#  23]+0.072*[#  95]+0.069*[#  35]+0.069*[# 107]+0.065*[#  17]
          +0.065*[#  44]+0.044*[#   5]+0.044*[#  50]+0.043*[#  87]+0.042*[#  60]
          +0.030*[#   6]+0.030*[#  51]+0.025*[#  90]+0.025*[#  63]+0.023*[#  15]
          +0.023*[#  42]+0.016*[#  59]+0.016*[#  86]+0.015*[#  34]+0.015*[# 106]
          +0.014*[#   9]+0.014*[#  54]+0.012*[#  16]+0.012*[#  43]+0.011*[#  36]
          +0.011*[# 108]+0.008*[#  77]+0.008*[# 113]+0.008*[#  62]+0.008*[#  89]
          +0.007*[#  26]+0.007*[#  98]+0.006*[#  32]+0.006*[# 104]+0.005*[#  73]
          +0.005*[# 109]+0.004*[#  80]+0.004*[# 116]+0.004*[#  33]+0.004*[# 105]
          +0.003*[#  18]+0.003*[#  45]+0.002*[#   8]+0.002*[#  24]+0.002*[#  53]
          +0.002*[#  96]+0.002*[#  25]+0.002*[#  97]+0.002*[#  19]+0.002*[#  61]
          +0.002*[#  88]+0.002*[#  91]+0.001*[#   1]+0.001*[#  46]+0.001*[#  81]
          +0.001*[# 117]+0.001*[#  27]+0.001*[#  55]+0.001*[#  82]+0.001*[#  99]
          
    |psi|^2 = 0.999
==== e(  22) =    -8.30325 eV ==== 
     psi = 0.036*[#  26]+0.036*[#  98]+0.035*[#  80]+0.035*[# 116]+0.032*[#   9]
          +0.032*[#  54]+0.029*[#  15]+0.029*[#  42]+0.025*[#  34]+0.025*[# 106]
          +0.024*[#  61]+0.024*[#  88]+0.023*[#  32]+0.022*[# 104]+0.020*[#  60]
          +0.020*[#  87]+0.019*[#   1]+0.019*[#  10]+0.019*[#  19]+0.019*[#  28]
          +0.019*[#  37]+0.019*[#  46]+0.019*[#  55]+0.019*[#  73]+0.019*[#  82]
          +0.019*[#  91]+0.019*[# 100]+0.019*[# 109]+0.016*[#  14]+0.016*[#  41]
          +0.016*[#  63]+0.016*[#  90]+0.015*[#  77]+0.015*[#  23]+0.015*[#  95]
          +0.015*[# 113]+0.013*[#   7]+0.013*[#  52]+0.012*[#   6]+0.012*[#  51]
          +0.011*[#  16]+0.011*[#  43]+0.010*[#  33]+0.010*[#  81]+0.010*[# 105]
          +0.010*[# 117]+0.008*[#  27]+0.008*[#  99]+0.004*[#   5]+0.004*[#  50]
          +0.004*[#  18]+0.004*[#  45]+0.003*[#  21]+0.003*[#  76]+0.003*[#  93]
          +0.003*[# 112]+0.003*[#  36]+0.003*[# 108]+0.002*[#  29]+0.002*[# 101]
          +0.002*[#  11]+0.002*[#  38]+0.002*[#  24]+0.002*[#  96]+0.001*[#   3]
          +0.001*[#   4]+0.001*[#  48]+0.001*[#  49]+0.001*[#  56]+0.001*[#  83]
          +0.001*[#  58]+0.001*[#  85]
    |psi|^2 = 0.999
==== e(  23) =    -8.27605 eV ==== 
     psi = 0.079*[# 113]+0.078*[#  77]+0.060*[#  45]+0.060*[#  18]+0.045*[#   5]
          +0.045*[#  50]+0.034*[#   7]+0.034*[#  52]+0.034*[#  59]+0.034*[#  86]
          +0.025*[#  27]+0.025*[#  99]+0.024*[#  62]+0.023*[#  89]+0.022*[#  25]
          +0.022*[#  97]+0.020*[#  34]+0.020*[# 106]+0.019*[#  17]+0.019*[#  44]
          +0.017*[#  36]+0.017*[# 108]+0.017*[#  54]+0.017*[#   9]+0.014*[#  32]
          +0.014*[#  80]+0.014*[# 104]+0.014*[# 116]+0.011*[#  61]+0.011*[#  88]
          +0.011*[#  81]+0.011*[# 117]+0.010*[#   6]+0.010*[#  51]+0.009*[#  35]
          +0.009*[# 107]+0.007*[#  33]+0.007*[# 105]+0.007*[#  60]+0.007*[#  87]
          +0.005*[#  26]+0.005*[#  98]+0.004*[#  15]+0.004*[#  42]+0.003*[#  79]
          +0.003*[# 115]+0.002*[#  78]+0.002*[# 114]+0.001*[#  22]+0.001*[#  94]
          
    |psi|^2 = 0.998
==== e(  24) =    -8.27598 eV ==== 
     psi = 0.072*[#  25]+0.072*[#  97]+0.057*[#  16]+0.057*[#  43]+0.041*[#   8]
          +0.041*[#  53]+0.039*[#  78]+0.039*[# 114]+0.038*[#   6]+0.038*[#  51]
          +0.036*[#  33]+0.036*[# 105]+0.036*[#  61]+0.035*[#  88]+0.025*[#  60]
          +0.025*[#  87]+0.020*[#  23]+0.020*[#  95]+0.015*[#  79]+0.015*[# 115]
          +0.013*[#  98]+0.013*[#  26]+0.013*[#   7]+0.013*[#  52]+0.013*[#  18]
          +0.013*[#  45]+0.012*[#  81]+0.012*[# 117]+0.011*[#  80]+0.011*[# 116]
          +0.008*[#  35]+0.008*[# 107]+0.007*[#  32]+0.007*[# 104]+0.006*[#   5]
          +0.006*[#  50]+0.006*[#   9]+0.006*[#  54]+0.005*[#  15]+0.006*[#  42]
          +0.004*[#  17]+0.004*[#  44]+0.004*[#  14]+0.004*[#  41]+0.004*[#  77]
          +0.004*[# 113]+0.003*[#  27]+0.003*[#  99]+0.003*[#  63]+0.003*[#  90]
          +0.002*[#  24]+0.002*[#  96]+0.002*[#  36]+0.002*[# 108]+0.001*[#  30]
          +0.001*[# 102]
    |psi|^2 = 0.998
==== e(  25) =    -8.27585 eV ==== 
     psi = 0.073*[#  78]+0.073*[# 114]+0.049*[#  62]+0.049*[#  89]+0.049*[#  23]
          +0.049*[#  95]+0.044*[# 108]+0.044*[#  36]+0.032*[#  14]+0.032*[#  41]
          +0.030*[# 107]+0.030*[#  35]+0.025*[#  15]+0.025*[#  42]+0.022*[#  50]
          +0.022*[#   5]+0.021*[#   6]+0.021*[#  51]+0.019*[#  25]+0.019*[#  97]
          +0.016*[#  24]+0.016*[#  96]+0.014*[#   9]+0.014*[#  53]+0.014*[#  54]
          +0.014*[#   8]+0.010*[#  44]+0.010*[#  17]+0.010*[#  33]+0.010*[# 105]
          +0.009*[#  32]+0.009*[# 104]+0.008*[# 116]+0.008*[#  59]+0.008*[#  80]
          +0.008*[#  86]+0.008*[#  26]+0.008*[#  98]+0.006*[#  61]+0.006*[#  88]
          +0.006*[#  81]+0.006*[# 117]+0.005*[#  34]+0.005*[# 106]+0.005*[#  77]
          +0.005*[# 113]+0.004*[#  27]+0.004*[#  99]+0.004*[#  63]+0.004*[#  90]
          +0.001*[#   7]+0.001*[#  52]+0.001*[#  60]+0.001*[#  87]
    |psi|^2 = 0.998
==== e(  26) =    -8.27582 eV ==== 
     psi = 0.064*[#  44]+0.064*[#  17]+0.064*[#  63]+0.063*[#  90]+0.055*[# 107]
          +0.054*[#  35]+0.038*[#  36]+0.038*[# 108]+0.030*[#  60]+0.030*[#  87]
          +0.028*[#  79]+0.028*[# 115]+0.027*[#  24]+0.027*[#  96]+0.024*[#  52]
          +0.024*[#   7]+0.024*[#  18]+0.024*[#  45]+0.022*[#  95]+0.022*[#  23]
          +0.021*[#  59]+0.021*[#  86]+0.017*[#  34]+0.017*[# 106]+0.012*[# 117]
          +0.012*[#  81]+0.010*[#  54]+0.010*[#   9]+0.008*[#   5]+0.008*[#  26]
          +0.008*[#  50]+0.008*[#  98]+0.008*[#  27]+0.008*[#  99]+0.007*[#  42]
          +0.007*[#  15]+0.005*[#  25]+0.005*[#  77]+0.005*[#  97]+0.005*[# 113]
          +0.005*[#  61]+0.005*[#  88]+0.004*[#  78]+0.004*[# 114]+0.003*[#   6]
          +0.003*[#  51]+0.002*[#  62]+0.002*[#  89]+0.002*[#  33]+0.002*[# 105]
          +0.001*[#   2]+0.001*[#  47]+0.001*[#  74]+0.001*[# 110]
    |psi|^2 = 0.998
==== e(  27) =    -8.07536 eV ==== 
     psi = 0.082*[#  80]+0.082*[# 116]+0.041*[#  16]+0.041*[#  43]+0.041*[#  61]
          +0.041*[#  88]+0.040*[#  27]+0.040*[#  99]+0.034*[#  77]+0.034*[# 113]
          +0.024*[#  81]+0.024*[# 117]+0.022*[#  34]+0.022*[# 106]+0.019*[#  15]
          +0.019*[#  42]+0.018*[#   8]+0.018*[#  53]+0.016*[#   9]+0.016*[#  54]
          +0.015*[#  73]+0.015*[# 109]+0.015*[#  18]+0.015*[#  45]+0.015*[#  62]
          +0.015*[#  89]+0.014*[#  63]+0.014*[#  90]+0.008*[#  23]+0.008*[#  95]
          +0.007*[#   5]+0.007*[#  50]+0.006*[#  10]+0.006*[#  37]+0.005*[#  32]
          +0.005*[#  55]+0.005*[#  82]+0.005*[# 104]+0.005*[#  36]+0.005*[# 108]
          +0.005*[#  79]+0.005*[# 115]+0.005*[#  14]+0.005*[#  41]+0.004*[#  22]
          +0.004*[#  94]+0.004*[#  31]+0.004*[#  35]+0.004*[# 103]+0.004*[# 107]
          +0.004*[#   7]+0.004*[#  26]+0.004*[#  52]+0.004*[#  60]+0.004*[#  87]
          +0.004*[#  98]+0.004*[#  57]+0.004*[#  84]+0.003*[#  13]+0.003*[#  40]
          +0.003*[#  19]+0.003*[#  91]+0.002*[#   4]+0.002*[#  29]+0.002*[#  49]
          +0.002*[#   3]+0.002*[#  48]+0.002*[# 101]+0.002*[#  76]+0.002*[# 112]
          +0.002*[#  11]+0.002*[#  38]+0.002*[#   1]+0.002*[#   2]+0.002*[#  46]
          +0.002*[#  47]+0.002*[#  33]+0.002*[# 105]+0.001*[#  58]+0.001*[#  85]
          +0.001*[#  21]+0.001*[#  24]+0.001*[#  93]+0.001*[#  96]
    |psi|^2 = 0.999
==== e(  28) =    -8.07531 eV ==== 
     psi = 0.068*[#   9]+0.068*[#  54]+0.065*[#  26]+0.065*[#  98]+0.059*[#  15]
          +0.059*[#  42]+0.036*[#  51]+0.036*[#   6]+0.024*[#   7]+0.024*[#  52]
          +0.022*[#  63]+0.022*[#  90]+0.021*[#  23]+0.021*[#  95]+0.015*[#  34]
          +0.015*[# 106]+0.015*[#  32]+0.015*[#  81]+0.015*[# 104]+0.015*[# 117]
          +0.014*[#   1]+0.014*[#  46]+0.014*[#  59]+0.014*[#  86]+0.013*[# 116]
          +0.012*[#  80]+0.012*[#  14]+0.012*[#  41]+0.011*[#  17]+0.011*[#  44]
          +0.008*[#  60]+0.008*[#  87]+0.007*[#  19]+0.007*[#  91]+0.007*[#   5]
          +0.007*[#  50]+0.007*[#  10]+0.007*[#  33]+0.007*[# 105]+0.007*[#  37]
          +0.006*[#  30]+0.006*[# 102]+0.005*[#  35]+0.005*[#  75]+0.005*[#  79]
          +0.005*[# 107]+0.005*[# 111]+0.005*[# 115]+0.004*[#  56]+0.004*[#  83]
          +0.003*[#   8]+0.003*[#  53]+0.003*[#  13]+0.003*[#  40]+0.003*[#   4]
          +0.003*[#  49]+0.002*[#  22]+0.002*[#  94]+0.002*[#  18]+0.002*[#  20]
          +0.002*[#  45]+0.002*[#  57]+0.002*[#  84]+0.002*[#  92]+0.002*[#  55]
          +0.002*[#  82]+0.002*[#  24]+0.002*[#  62]+0.002*[#  96]+0.002*[#  89]
          +0.001*[#  28]+0.001*[#  74]+0.001*[# 100]+0.001*[# 110]+0.001*[#  36]
          +0.001*[# 108]+0.001*[#  11]+0.001*[#  38]+0.001*[#  61]+0.001*[#  88]
          
    |psi|^2 = 0.999
==== e(  29) =    -8.07518 eV ==== 
     psi = 0.055*[#  32]+0.055*[# 104]+0.047*[#  60]+0.047*[#  87]+0.046*[#  14]
          +0.047*[#  41]+0.038*[# 106]+0.038*[#  34]+0.036*[#  33]+0.036*[# 105]
          +0.031*[#  24]+0.031*[#  96]+0.029*[#  98]+0.029*[#  26]+0.024*[#  61]
          +0.024*[#  88]+0.021*[#  79]+0.021*[# 115]+0.014*[#  28]+0.014*[# 100]
          +0.014*[#   7]+0.013*[#  52]+0.012*[#  81]+0.012*[# 117]+0.012*[#  63]
          +0.012*[#  90]+0.012*[#  59]+0.011*[#  86]+0.009*[#   5]+0.009*[#  50]
          +0.009*[#  55]+0.009*[#  82]+0.008*[#  23]+0.008*[#  95]+0.007*[#  27]
          +0.007*[#  99]+0.007*[#  36]+0.007*[# 108]+0.006*[#  19]+0.006*[#  91]
          +0.006*[#   8]+0.006*[#  53]+0.005*[#  74]+0.005*[# 110]+0.005*[#   6]
          +0.005*[#  51]+0.005*[#  12]+0.005*[#  39]+0.004*[#   2]+0.004*[#  47]
          +0.004*[#  58]+0.004*[#  85]+0.004*[#  20]+0.004*[#  92]+0.004*[#  16]
          +0.004*[#  43]+0.003*[#  62]+0.003*[#  89]+0.003*[#  10]+0.003*[#  37]
          +0.003*[#  77]+0.003*[# 113]+0.003*[#   3]+0.002*[#  15]+0.003*[#  42]
          +0.003*[#  48]+0.002*[#  31]+0.002*[# 103]+0.002*[#  25]+0.002*[#  97]
          +0.001*[#  21]+0.001*[#  75]+0.001*[# 111]+0.001*[#  29]+0.001*[#  93]
          +0.001*[#  78]+0.001*[# 101]+0.001*[# 114]
    |psi|^2 = 0.999
==== e(  30) =    -7.95057 eV ==== 
     psi = 0.114*[# 113]+0.114*[#  77]+0.053*[#  34]+0.053*[# 106]+0.039*[#   6]
          +0.039*[#  51]+0.032*[#  36]+0.032*[# 108]+0.031*[#  16]+0.031*[#  43]
          +0.028*[#  35]+0.028*[#  60]+0.028*[#  87]+0.028*[# 107]+0.028*[#  18]
          +0.028*[#  45]+0.024*[#   9]+0.024*[#  54]+0.022*[#  17]+0.022*[#  44]
          +0.014*[#  98]+0.014*[#  26]+0.012*[#  27]+0.012*[#  99]+0.011*[#  89]
          +0.011*[#  62]+0.010*[#  33]+0.010*[# 105]+0.009*[#   5]+0.009*[#  50]
          +0.008*[#   7]+0.008*[#  52]+0.007*[#  80]+0.007*[# 116]+0.006*[#  42]
          +0.006*[#  15]+0.004*[#   8]+0.004*[#  53]+0.003*[#  63]+0.003*[#  90]
          +0.002*[#  25]+0.002*[#  61]+0.002*[#  88]+0.002*[#  97]+0.001*[#  24]
          +0.001*[#  96]+0.001*[#  22]+0.001*[#  94]
    |psi|^2 = 0.999
==== e(  31) =    -7.95043 eV ==== 
     psi = 0.076*[#  87]+0.076*[#  60]+0.047*[#  26]+0.046*[#  98]+0.044*[#  25]
          +0.044*[#  97]+0.042*[#  18]+0.042*[#  45]+0.042*[#  42]+0.041*[#  15]
          +0.040*[#  54]+0.039*[#   9]+0.035*[#  80]+0.035*[# 116]+0.029*[#  50]
          +0.029*[#   5]+0.029*[#   7]+0.029*[#  52]+0.025*[#  14]+0.025*[#  41]
          +0.012*[#  32]+0.012*[# 104]+0.011*[#  27]+0.012*[#  99]+0.011*[#  62]
          +0.011*[#  89]+0.009*[#   6]+0.009*[#  51]+0.007*[#  81]+0.008*[# 117]
          +0.006*[#  61]+0.006*[#  35]+0.006*[#  88]+0.006*[# 107]+0.004*[#   8]
          +0.004*[#  53]+0.004*[#  23]+0.003*[#  95]+0.003*[#  59]+0.003*[#  86]
          +0.002*[#  24]+0.002*[#  96]+0.002*[#  33]+0.002*[# 105]+0.002*[#  77]
          +0.002*[# 113]+0.002*[#  79]+0.002*[# 115]+0.001*[#  63]+0.001*[#  90]
          +0.001*[#  10]+0.001*[#  36]+0.001*[#  37]+0.001*[# 108]
    |psi|^2 = 0.999
==== e(  32) =    -7.95028 eV ==== 
     psi = 0.088*[#  63]+0.088*[#  90]+0.067*[#  97]+0.067*[#  25]+0.054*[#  26]
          +0.053*[#  98]+0.037*[#  78]+0.037*[# 114]+0.032*[#  86]+0.032*[#  59]
          +0.032*[#  80]+0.032*[# 116]+0.021*[#   5]+0.021*[#  50]+0.018*[#   6]
          +0.018*[#  32]+0.018*[# 104]+0.018*[#  17]+0.018*[#  44]+0.018*[#  51]
          +0.017*[#   9]+0.017*[#  54]+0.016*[#  16]+0.016*[#  43]+0.016*[# 105]
          +0.016*[#  33]+0.008*[#  36]+0.008*[# 108]+0.008*[#  34]+0.008*[# 106]
          +0.007*[#  52]+0.007*[#   7]+0.006*[#  77]+0.006*[# 113]+0.006*[#  27]
          +0.006*[#  99]+0.005*[#  35]+0.005*[#  79]+0.005*[# 107]+0.005*[# 115]
          +0.005*[#  81]+0.005*[# 117]+0.004*[#  62]+0.004*[#  89]+0.002*[#  60]
          +0.002*[#  87]+0.002*[#  24]+0.002*[#  96]
    |psi|^2 = 0.999
==== e(  33) =    -7.94993 eV ==== 
     psi = 0.094*[#  23]+0.094*[#  95]+0.048*[#   7]+0.048*[#  52]+0.046*[# 116]
          +0.045*[#  80]+0.045*[#  17]+0.045*[#  44]+0.036*[#   9]+0.036*[#  54]
          +0.027*[#  35]+0.027*[# 107]+0.025*[#  45]+0.025*[#  18]+0.024*[#  15]
          +0.024*[#  42]+0.024*[#  81]+0.024*[# 117]+0.023*[#  32]+0.023*[# 104]
          +0.023*[# 114]+0.023*[#  78]+0.020*[#  33]+0.020*[# 105]+0.017*[#  34]
          +0.017*[# 106]+0.013*[#   8]+0.013*[#  53]+0.009*[#  41]+0.009*[#  14]
          +0.006*[#   6]+0.006*[#  51]+0.003*[#  77]+0.003*[# 113]+0.002*[#  63]
          +0.002*[#  79]+0.002*[#  90]+0.002*[# 115]+0.001*[#  24]+0.001*[#  62]
          +0.001*[#  89]+0.001*[#  96]
    |psi|^2 = 0.999
==== e(  34) =    -7.94988 eV ==== 
     psi = 0.105*[#  61]+0.105*[#  88]+0.056*[#  36]+0.056*[# 108]+0.052*[#  78]
          +0.052*[# 114]+0.035*[#  15]+0.035*[#  42]+0.029*[#  23]+0.029*[#  95]
          +0.025*[# 107]+0.025*[#  35]+0.023*[#  62]+0.023*[#  89]+0.021*[#   6]
          +0.021*[#  51]+0.021*[#  14]+0.021*[#  41]+0.019*[#  16]+0.019*[#  43]
          +0.017*[#  34]+0.017*[# 106]+0.015*[#   5]+0.015*[#  50]+0.015*[#  32]
          +0.015*[# 104]+0.012*[#   9]+0.012*[#  54]+0.010*[#  26]+0.011*[#  98]
          +0.010*[#  33]+0.010*[# 105]+0.009*[#  63]+0.009*[#  90]+0.007*[#  24]
          +0.007*[#  96]+0.006*[#  77]+0.006*[# 113]+0.001*[#  27]+0.002*[#  79]
          +0.001*[#  99]+0.002*[# 115]+0.001*[#  60]+0.001*[#  87]
    |psi|^2 = 0.999
==== e(  35) =    -7.74625 eV ==== 
     psi = 0.066*[# 108]+0.066*[#  36]+0.054*[#  63]+0.054*[#  90]+0.045*[#  35]
          +0.045*[# 107]+0.042*[#  25]+0.042*[#  97]+0.037*[#  77]+0.037*[# 113]
          +0.036*[# 106]+0.036*[#  34]+0.028*[#  45]+0.028*[#  18]+0.024*[#   8]
          +0.024*[#  53]+0.021*[#  27]+0.021*[#  99]+0.020*[#   5]+0.020*[#  50]
          +0.020*[#  79]+0.020*[# 115]+0.014*[#  17]+0.014*[#  44]+0.014*[#  61]
          +0.014*[#  51]+0.014*[#  88]+0.013*[#   6]+0.013*[#  59]+0.013*[#  86]
          +0.011*[#  80]+0.011*[# 116]+0.010*[#  60]+0.010*[#  87]+0.007*[#  32]
          +0.007*[# 104]+0.006*[#  24]+0.006*[#  96]+0.004*[#  14]+0.004*[#  41]
          +0.004*[#  62]+0.004*[#  78]+0.004*[#  89]+0.004*[# 114]+0.003*[#  26]
          +0.003*[#  98]+0.001*[#  23]+0.001*[#  95]+0.001*[#   9]+0.001*[#  54]
          
    |psi|^2 = 0.999
==== e(  36) =    -7.74613 eV ==== 
     psi = 0.066*[#  43]+0.066*[#  16]+0.059*[#  77]+0.059*[# 113]+0.055*[#  25]
          +0.055*[#  97]+0.047*[#  18]+0.046*[#  45]+0.042*[#   7]+0.042*[#  52]
          +0.035*[#   5]+0.035*[#  50]+0.034*[#  54]+0.034*[#   9]+0.030*[#  59]
          +0.030*[#  86]+0.024*[# 116]+0.024*[#  80]+0.018*[#  27]+0.018*[#  99]
          +0.017*[#  36]+0.017*[# 108]+0.014*[#  62]+0.014*[#  89]+0.013*[# 104]
          +0.012*[#  32]+0.010*[#  79]+0.010*[# 115]+0.010*[#  17]+0.010*[#  44]
          +0.005*[#  78]+0.005*[# 114]+0.004*[#  14]+0.004*[#  41]+0.004*[#   8]
          +0.004*[#  53]+0.003*[#  15]+0.003*[#  34]+0.003*[#  42]+0.003*[#  98]
          +0.003*[# 106]+0.002*[#  26]+0.002*[#  24]+0.002*[#  96]+0.001*[#  60]
          +0.001*[#  87]+0.001*[#  63]+0.001*[#  90]
    |psi|^2 = 0.999
==== e(  37) =    -7.74581 eV ==== 
     psi = 0.071*[#  78]+0.071*[# 114]+0.065*[#  60]+0.065*[#  87]+0.059*[#  23]
          +0.059*[#  95]+0.035*[#  15]+0.035*[#  42]+0.026*[#  25]+0.026*[#  97]
          +0.024*[#  18]+0.024*[#  45]+0.024*[#  81]+0.024*[# 117]+0.023*[# 113]
          +0.022*[#  77]+0.021*[#   6]+0.021*[#  51]+0.021*[#  41]+0.021*[#  14]
          +0.020*[#  88]+0.019*[#  61]+0.016*[#  62]+0.016*[#  89]+0.015*[#  98]
          +0.014*[#  26]+0.013*[#   8]+0.013*[#  53]+0.013*[#  63]+0.013*[#  90]
          +0.013*[#  32]+0.013*[# 104]+0.011*[#   7]+0.011*[#  52]+0.008*[# 106]
          +0.008*[#   5]+0.008*[#  34]+0.008*[#  50]+0.005*[#  27]+0.005*[#  99]
          +0.004*[#  59]+0.004*[#  86]+0.003*[#  35]+0.003*[# 107]+0.001*[#  16]
          +0.001*[#  43]
    |psi|^2 = 0.999
==== e(  38) =    -7.74553 eV ==== 
     psi = 0.066*[#  44]+0.066*[#  17]+0.049*[#  51]+0.049*[#   6]+0.040*[#  23]
          +0.040*[#  95]+0.036*[#  61]+0.036*[#  88]+0.035*[#  50]+0.035*[#   5]
          +0.034*[#   7]+0.034*[#  52]+0.030*[#  25]+0.029*[#  97]+0.025*[#  33]
          +0.025*[# 105]+0.024*[#  59]+0.024*[#  86]+0.022*[#   8]+0.022*[#  53]
          +0.021*[#  35]+0.021*[# 107]+0.016*[#  81]+0.016*[# 117]+0.015*[#  78]
          +0.015*[# 114]+0.013*[#  63]+0.013*[#  90]+0.012*[#  26]+0.012*[#  98]
          +0.012*[#  15]+0.011*[#  42]+0.008*[#  62]+0.008*[#  89]+0.008*[#   9]
          +0.008*[#  41]+0.008*[#  54]+0.008*[#  14]+0.007*[#  80]+0.007*[# 116]
          +0.005*[#  24]+0.005*[#  96]+0.005*[#  60]+0.005*[#  87]+0.004*[#  79]
          +0.004*[# 115]+0.003*[#  18]+0.003*[#  45]+0.002*[#  34]+0.002*[# 106]
          +0.001*[#  16]+0.001*[#  32]+0.001*[#  43]+0.001*[# 104]
    |psi|^2 = 0.999
==== e(  39) =    -7.74528 eV ==== 
     psi = 0.062*[#  35]+0.062*[# 107]+0.060*[#  78]+0.060*[# 114]+0.051*[#  62]
          +0.051*[#  89]+0.048*[#  36]+0.048*[# 108]+0.041*[#  33]+0.041*[# 105]
          +0.040*[#  24]+0.040*[#  96]+0.035*[#  17]+0.035*[#  44]+0.023*[#  18]
          +0.023*[#  45]+0.019*[#  79]+0.019*[# 115]+0.019*[#  23]+0.018*[#  95]
          +0.018*[#   9]+0.018*[#  54]+0.011*[#  26]+0.011*[#  98]+0.010*[#  63]
          +0.010*[#  90]+0.009*[#   6]+0.009*[#  51]+0.006*[#  14]+0.006*[#  41]
          +0.006*[#   5]+0.006*[#   7]+0.006*[#  50]+0.006*[#  52]+0.006*[#  81]
          +0.006*[# 117]+0.005*[#  59]+0.005*[#  86]+0.005*[#  88]+0.005*[#  61]
          +0.004*[#  15]+0.004*[#  42]+0.003*[#   8]+0.003*[#  16]+0.003*[#  43]
          +0.003*[#  34]+0.003*[#  53]+0.003*[# 106]+0.002*[#  27]+0.002*[#  77]
          +0.002*[#  99]+0.002*[# 113]+0.002*[#  32]+0.002*[# 104]+0.001*[#  25]
          +0.001*[#  97]
    |psi|^2 = 0.999
==== e(  40) =    -7.59777 eV ==== 
     psi = 0.084*[#  80]+0.083*[# 116]+0.049*[#  54]+0.046*[#   9]+0.040*[# 108]
          +0.039*[#  36]+0.037*[#  98]+0.036*[#  26]+0.036*[#  45]+0.036*[#  81]
          +0.035*[# 117]+0.035*[#  18]+0.032*[# 104]+0.031*[#  32]+0.029*[#  63]
          +0.028*[#  90]+0.026*[# 107]+0.025*[#  35]+0.023*[#  95]+0.023*[#  23]
          +0.018*[#  61]+0.017*[#  88]+0.017*[#  17]+0.017*[#  44]+0.014*[#  41]
          +0.014*[#  14]+0.012*[#  42]+0.012*[#  62]+0.012*[#  89]+0.011*[#  15]
          +0.009*[#  52]+0.008*[#   7]+0.008*[#   8]+0.008*[#  53]+0.005*[#  50]
          +0.005*[#   5]+0.004*[# 106]+0.004*[#  34]+0.003*[#  60]+0.002*[#  87]
          +0.002*[#  24]+0.002*[#  96]+0.002*[# 105]+0.002*[#  33]+0.002*[#  51]
          +0.002*[#  77]+0.002*[# 113]+0.001*[#   6]+0.001*[#  16]+0.001*[#  43]
          
    |psi|^2 = 0.999
==== e(  41) =    -7.59768 eV ==== 
     psi = 0.058*[#  61]+0.057*[#  88]+0.055*[#  43]+0.054*[#  16]+0.046*[#  23]
          +0.046*[#  95]+0.043*[#  52]+0.043*[#   7]+0.040*[#  42]+0.039*[#  15]
          +0.037*[#  97]+0.037*[#  25]+0.033*[#  63]+0.033*[#  41]+0.033*[#  90]
          +0.032*[#  14]+0.032*[# 113]+0.031*[#  77]+0.030*[# 106]+0.029*[#  34]
          +0.028*[#   5]+0.027*[#  50]+0.015*[#  26]+0.015*[#  98]+0.012*[#  59]
          +0.012*[#  86]+0.006*[#  27]+0.006*[#  99]+0.005*[#  79]+0.005*[# 115]
          +0.004*[# 117]+0.004*[#  81]+0.003*[# 116]+0.003*[#  80]+0.003*[# 105]
          +0.003*[#   9]+0.003*[#  33]+0.002*[#  17]+0.002*[#  44]+0.002*[#  54]
          +0.002*[#  53]+0.002*[#  60]+0.002*[#  87]+0.002*[#   8]+0.002*[#  35]
          +0.002*[# 107]+0.001*[#  36]+0.001*[# 108]+0.001*[#  10]+0.001*[#  24]
          +0.001*[#  37]+0.001*[#  96]
    |psi|^2 = 0.999
==== e(  42) =    -7.59743 eV ==== 
     psi = 0.058*[#   9]+0.058*[#  54]+0.053*[# 106]+0.052*[#  34]+0.047*[#  61]
          +0.046*[#  88]+0.045*[#  77]+0.044*[# 113]+0.035*[#  23]+0.035*[#  95]
          +0.034*[#  52]+0.034*[#   7]+0.033*[#  25]+0.033*[#  97]+0.028*[#  60]
          +0.027*[#  87]+0.027*[# 104]+0.026*[#  32]+0.020*[#  80]+0.019*[# 116]
          +0.014*[# 114]+0.014*[#  78]+0.014*[#  59]+0.014*[#  81]+0.014*[#  86]
          +0.013*[# 117]+0.012*[#  79]+0.012*[# 115]+0.011*[#   6]+0.011*[#  51]
          +0.010*[#  15]+0.010*[#  42]+0.009*[#  24]+0.009*[#  96]+0.008*[#  14]
          +0.008*[#  27]+0.008*[#  41]+0.008*[#  99]+0.005*[#  90]+0.005*[#  63]
          +0.004*[#  26]+0.003*[#  98]+0.003*[#  43]+0.003*[#  16]+0.002*[#  35]
          +0.002*[# 107]+0.002*[#   5]+0.002*[#  50]+0.001*[#  33]+0.001*[# 105]
          +0.001*[#   1]+0.001*[#  36]
    |psi|^2 = 0.999
==== e(  43) =    -7.59710 eV ==== 
     psi = 0.073*[#  60]+0.072*[#  87]+0.055*[#  42]+0.053*[#  15]+0.051*[#  98]
          +0.051*[#  26]+0.044*[# 105]+0.043*[#  33]+0.036*[#  63]+0.036*[#  90]
          +0.030*[#  78]+0.030*[# 114]+0.023*[#  35]+0.023*[# 107]+0.021*[#  62]
          +0.021*[#  89]+0.019*[#  45]+0.018*[#  18]+0.018*[#  41]+0.017*[#  27]
          +0.017*[#  99]+0.017*[#  14]+0.015*[#   6]+0.015*[#  51]+0.014*[#  43]
          +0.014*[#  36]+0.014*[# 108]+0.014*[#  16]+0.013*[#  54]+0.012*[#   9]
          +0.011*[#  44]+0.011*[# 116]+0.011*[#  17]+0.010*[#  80]+0.008*[# 106]
          +0.008*[#  34]+0.007*[# 104]+0.007*[#  32]+0.004*[#   5]+0.004*[#  50]
          +0.003*[#  95]+0.003*[#  23]+0.003*[#  61]+0.003*[#  59]+0.003*[#  86]
          +0.003*[#  88]+0.003*[#  24]+0.003*[#  96]+0.001*[#  52]+0.001*[#   7]
          +0.001*[#   8]+0.001*[#  10]+0.001*[#  37]+0.001*[#  53]+0.001*[#  55]
          +0.001*[#  82]
    |psi|^2 = 0.999
==== e(  44) =    -7.59704 eV ==== 
     psi = 0.061*[#  51]+0.060*[#   6]+0.058*[#  26]+0.056*[#  98]+0.040*[# 116]
          +0.040*[#  80]+0.037*[#  77]+0.036*[# 113]+0.036*[# 104]+0.035*[#  32]
          +0.034*[#  54]+0.033*[#   9]+0.027*[#  17]+0.027*[#  44]+0.026*[# 106]
          +0.026*[#  34]+0.024*[#  78]+0.024*[# 114]+0.021*[#  50]+0.021*[#   5]
          +0.019*[#  42]+0.019*[#  15]+0.017*[# 105]+0.016*[#  33]+0.016*[#  27]
          +0.015*[#  99]+0.014*[#  18]+0.014*[#  45]+0.012*[# 108]+0.011*[#  36]
          +0.011*[#  87]+0.011*[#  60]+0.010*[#   8]+0.010*[#  53]+0.008*[#  14]
          +0.008*[#  41]+0.007*[#  24]+0.007*[#  96]+0.006*[#  35]+0.006*[# 107]
          +0.005*[#  95]+0.004*[#  23]+0.004*[#  62]+0.004*[#  89]+0.002*[#  52]
          +0.002*[#   7]+0.002*[#  59]+0.002*[#  86]+0.002*[#  88]+0.002*[#  61]
          +0.001*[#   1]+0.001*[#  46]+0.001*[#  63]+0.001*[#  81]+0.001*[#  90]
          +0.001*[# 117]
    |psi|^2 = 0.999
==== e(  45) =    -7.57582 eV ==== 
     psi = 0.089*[#  98]+0.089*[#  26]+0.067*[#  88]+0.066*[#  61]+0.065*[#  87]
          +0.063*[#  60]+0.061*[#  90]+0.060*[#  63]+0.049*[#  80]+0.049*[# 116]
          +0.032*[#  15]+0.032*[#  42]+0.031*[#  95]+0.031*[#  23]+0.019*[#  27]
          +0.019*[#  99]+0.015*[#  14]+0.014*[#  41]+0.014*[#  81]+0.014*[# 117]
          +0.012*[# 113]+0.012*[#  77]+0.006*[#  18]+0.006*[#  45]+0.005*[#  16]
          +0.005*[#  43]+0.004*[#  59]+0.004*[#  86]+0.004*[#   5]+0.004*[#  50]
          +0.003*[#  25]+0.003*[#  34]+0.003*[#  78]+0.003*[#  97]+0.003*[# 106]
          +0.003*[# 114]+0.003*[#  96]+0.003*[#  24]+0.002*[#   7]+0.002*[#  52]
          +0.002*[#  35]+0.002*[#  36]+0.002*[# 107]+0.002*[# 108]+0.002*[#  32]
          +0.002*[#  55]+0.002*[#  82]+0.002*[# 104]+0.001*[#  19]+0.001*[#  91]
          
    |psi|^2 = 0.999
==== e(  46) =    -7.57577 eV ==== 
     psi = 0.085*[# 116]+0.085*[#  80]+0.078*[#  15]+0.075*[#  42]+0.051*[#  14]
          +0.049*[#  41]+0.049*[#  77]+0.049*[# 113]+0.041*[#  16]+0.039*[#  43]
          +0.038*[#   9]+0.037*[#  54]+0.037*[#  34]+0.035*[# 106]+0.026*[# 117]
          +0.025*[#  81]+0.022*[#   7]+0.021*[#  52]+0.021*[#  32]+0.020*[# 104]
          +0.015*[#  33]+0.014*[# 105]+0.010*[#  18]+0.009*[#  45]+0.006*[#  17]
          +0.006*[#  44]+0.006*[#  95]+0.005*[#  23]+0.005*[#  51]+0.005*[#   6]
          +0.004*[#  87]+0.003*[#  60]+0.002*[#   5]+0.002*[#  50]+0.002*[#  10]
          +0.002*[#  89]+0.002*[# 115]+0.001*[#  37]+0.001*[#  62]+0.002*[#  79]
          +0.001*[#  73]+0.001*[# 109]
    |psi|^2 = 0.999
==== e(  47) =    -7.57567 eV ==== 
     psi = 0.089*[#   9]+0.087*[#  54]+0.066*[#  32]+0.064*[# 104]+0.060*[#  34]
          +0.058*[# 106]+0.053*[#  26]+0.053*[#  98]+0.046*[#   6]+0.045*[#  51]
          +0.028*[#  88]+0.027*[#   7]+0.027*[#  33]+0.027*[#  52]+0.027*[#  61]
          +0.026*[# 105]+0.024*[#  23]+0.023*[#  95]+0.014*[#  60]+0.014*[#  87]
          +0.014*[#  99]+0.013*[#  27]+0.012*[#   5]+0.012*[#  36]+0.012*[#  50]
          +0.012*[# 108]+0.004*[#  90]+0.004*[#  24]+0.004*[#  35]+0.004*[#  63]
          +0.004*[#  96]+0.004*[# 107]+0.003*[# 116]+0.003*[#  18]+0.003*[#  80]
          +0.002*[#  45]+0.002*[#  15]+0.002*[#  25]+0.002*[#  42]+0.002*[#  97]
          +0.001*[#  78]+0.002*[# 114]+0.001*[#   1]+0.001*[#  28]+0.001*[#  46]
          +0.001*[# 100]+0.001*[# 113]+0.001*[#  16]+0.001*[#  77]+0.001*[# 117]
          
    |psi|^2 = 0.999
==== e(  48) =    -7.39115 eV ==== 
     psi = 0.082*[#  59]+0.081*[#  86]+0.064*[#  96]+0.064*[#  24]+0.042*[# 115]
          +0.042*[#  79]+0.034*[# 105]+0.034*[#  33]+0.033*[# 117]+0.033*[#  81]
          +0.031*[#  41]+0.031*[#  14]+0.022*[#   5]+0.022*[#  50]+0.020*[#  44]
          +0.019*[#  17]+0.019*[#  43]+0.019*[#  16]+0.019*[#   8]+0.019*[#  53]
          +0.019*[#  63]+0.019*[#  90]+0.016*[#  26]+0.016*[#  98]+0.015*[#  80]
          +0.015*[# 116]+0.013*[#  60]+0.012*[#  87]+0.009*[#  18]+0.009*[#  45]
          +0.009*[#   9]+0.009*[#  54]+0.008*[#  25]+0.008*[#  97]+0.007*[#  34]
          +0.007*[# 106]+0.005*[#   7]+0.005*[#  27]+0.005*[#  52]+0.006*[#  99]
          +0.005*[#  36]+0.005*[# 108]+0.004*[#  35]+0.004*[# 107]+0.004*[#  78]
          +0.004*[# 114]+0.004*[#  62]+0.004*[#  89]+0.003*[#  23]+0.003*[#  95]
          +0.001*[#  61]+0.001*[#  88]
    |psi|^2 = 0.999
==== e(  49) =    -7.39111 eV ==== 
     psi = 0.065*[#  62]+0.065*[#  89]+0.053*[#  81]+0.052*[# 117]+0.052*[#  27]
          +0.052*[#  99]+0.042*[# 105]+0.042*[#  33]+0.042*[# 107]+0.042*[#  35]
          +0.041*[#  43]+0.041*[#  16]+0.040*[#  44]+0.040*[#  17]+0.023*[#  51]
          +0.022*[#   6]+0.021*[#  15]+0.021*[#  42]+0.019*[#  34]+0.019*[# 106]
          +0.017*[#   7]+0.017*[#  52]+0.015*[#  18]+0.015*[#  45]+0.013*[#  97]
          +0.012*[#  25]+0.011*[#  23]+0.011*[#  95]+0.011*[#  36]+0.011*[# 108]
          +0.010*[#  78]+0.010*[# 114]+0.009*[#  77]+0.009*[# 113]+0.004*[#  80]
          +0.004*[# 116]+0.003*[#  79]+0.003*[# 115]+0.002*[#  26]+0.002*[#  98]
          +0.002*[#   8]+0.002*[#  53]+0.001*[#  13]+0.001*[#  30]+0.001*[#  40]
          +0.001*[# 102]
    |psi|^2 = 0.999
==== e(  50) =    -7.39095 eV ==== 
     psi = 0.074*[# 104]+0.073*[#  32]+0.047*[#  53]+0.047*[#   8]+0.045*[#  27]
          +0.045*[#  99]+0.033*[#  61]+0.033*[#  88]+0.033*[#  51]+0.032*[#   6]
          +0.028*[#  90]+0.028*[#  63]+0.025*[#  34]+0.025*[# 106]+0.022*[#  77]
          +0.022*[# 113]+0.018*[#  45]+0.018*[#  18]+0.017*[#  54]+0.017*[#   9]
          +0.017*[#  80]+0.016*[# 116]+0.015*[#  25]+0.015*[#  97]+0.015*[#  43]
          +0.015*[#  16]+0.013*[#  24]+0.013*[#  96]+0.013*[#  26]+0.013*[#  36]
          +0.013*[#  98]+0.013*[# 108]+0.009*[#   5]+0.009*[#  50]+0.009*[#  62]
          +0.009*[#  89]+0.007*[#  33]+0.007*[# 105]+0.006*[#   7]+0.006*[#  52]
          +0.006*[#  78]+0.006*[# 114]+0.005*[#  14]+0.005*[#  41]+0.005*[#  17]
          +0.005*[#  44]+0.005*[#  23]+0.005*[#  95]+0.004*[#  81]+0.004*[# 117]
          +0.003*[#  60]+0.003*[#  79]+0.003*[#  87]+0.003*[# 115]+0.002*[#  35]
          +0.002*[#  15]+0.002*[#  42]+0.002*[# 107]
    |psi|^2 = 0.999
==== e(  51) =    -7.39093 eV ==== 
     psi = 0.070*[#  79]+0.070*[# 115]+0.048*[#  14]+0.048*[#  41]+0.042*[#  53]
          +0.042*[#   8]+0.041*[#   5]+0.040*[#  50]+0.039*[#  24]+0.039*[#  96]
          +0.031*[#  60]+0.031*[#  87]+0.029*[#   7]+0.029*[#  52]+0.026*[#  36]
          +0.027*[# 108]+0.026*[#  78]+0.026*[# 114]+0.023*[#  15]+0.023*[#  42]
          +0.018*[#  59]+0.018*[#  86]+0.016*[#  18]+0.016*[#  45]+0.015*[#  23]
          +0.015*[#  95]+0.013*[#  35]+0.013*[# 107]+0.013*[#  62]+0.013*[#  89]
          +0.009*[#  25]+0.009*[#  97]+0.008*[#  81]+0.008*[# 117]+0.008*[#  61]
          +0.008*[#  88]+0.005*[#   9]+0.005*[#  54]+0.004*[#  34]+0.004*[# 106]
          +0.003*[#   6]+0.003*[#  51]+0.003*[#  63]+0.003*[#  90]+0.002*[#  16]
          +0.002*[#  43]+0.001*[#  26]+0.001*[#  74]+0.001*[#  98]+0.001*[# 110]
          +0.001*[#  80]+0.001*[# 116]
    |psi|^2 = 0.999
==== e(  52) =    -7.25760 eV ==== 
     psi = 0.062*[#  86]+0.062*[#  59]+0.048*[#  89]+0.048*[#  62]+0.048*[#  14]
          +0.048*[#  41]+0.038*[#  35]+0.038*[# 107]+0.037*[# 117]+0.037*[#  81]
          +0.032*[#   5]+0.032*[#  50]+0.027*[#  60]+0.027*[#  87]+0.025*[#  78]
          +0.025*[# 114]+0.024*[#  53]+0.024*[#   8]+0.023*[#  24]+0.023*[#  16]
          +0.023*[#  36]+0.023*[# 108]+0.023*[#  43]+0.023*[#  96]+0.015*[#  63]
          +0.015*[#  90]+0.015*[#  23]+0.014*[#  95]+0.014*[#  25]+0.013*[#  97]
          +0.010*[#  80]+0.010*[# 116]+0.007*[#  34]+0.007*[# 106]+0.006*[#  18]
          +0.006*[#  45]+0.006*[#  61]+0.006*[#  88]+0.003*[#  27]+0.003*[#  99]
          +0.002*[#  15]+0.003*[#  42]+0.002*[#  32]+0.002*[# 104]+0.002*[#  17]
          +0.002*[#  44]+0.001*[#  79]+0.001*[# 115]+0.001*[#   9]+0.001*[#  33]
          +0.001*[#  54]+0.001*[# 105]
    |psi|^2 = 1.000
==== e(  53) =    -7.25756 eV ==== 
     psi = 0.092*[#  96]+0.092*[#  24]+0.063*[# 117]+0.063*[#  81]+0.062*[#   6]
          +0.062*[#  51]+0.048*[#  33]+0.048*[# 105]+0.027*[#  44]+0.027*[#  17]
          +0.023*[#   8]+0.023*[#  53]+0.023*[#  80]+0.023*[# 116]+0.021*[#  79]
          +0.020*[# 115]+0.019*[#  27]+0.019*[#  99]+0.016*[#   9]+0.016*[#  54]
          +0.015*[#  63]+0.015*[#  78]+0.015*[#  90]+0.015*[# 114]+0.014*[#  61]
          +0.014*[#  88]+0.011*[#  34]+0.011*[# 106]+0.010*[#  18]+0.010*[#  45]
          +0.008*[#  36]+0.008*[# 108]+0.007*[#  15]+0.007*[#  42]+0.004*[#  32]
          +0.004*[# 104]+0.004*[#   5]+0.004*[#  50]+0.003*[#  23]+0.003*[#  25]
          +0.003*[#  95]+0.003*[#  97]+0.001*[#  16]+0.002*[#  26]+0.001*[#  43]
          +0.001*[#  62]+0.002*[#  98]+0.001*[#  89]+0.001*[#  59]+0.001*[#  86]
          
    |psi|^2 = 1.000
==== e(  54) =    -7.25743 eV ==== 
     psi = 0.056*[#  53]+0.056*[#   8]+0.048*[#  15]+0.048*[#  42]+0.046*[#  16]
          +0.046*[#  43]+0.041*[#  17]+0.041*[#  44]+0.040*[#  62]+0.039*[#  89]
          +0.039*[# 115]+0.039*[#  79]+0.035*[#  34]+0.035*[# 106]+0.035*[#  24]
          +0.034*[#  96]+0.030*[#  33]+0.030*[# 105]+0.025*[#  14]+0.025*[#  41]
          +0.016*[#  81]+0.016*[#  23]+0.016*[#  95]+0.016*[# 117]+0.011*[#  99]
          +0.011*[#  27]+0.011*[#  32]+0.011*[# 104]+0.009*[#  63]+0.009*[#  90]
          +0.008*[#  60]+0.008*[#  87]+0.006*[#  80]+0.006*[# 116]+0.006*[#   7]
          +0.006*[#  52]+0.005*[#  59]+0.005*[#  86]+0.004*[#  78]+0.004*[# 114]
          +0.003*[#  25]+0.003*[#  97]+0.003*[#  35]+0.003*[#   9]+0.003*[#  54]
          +0.003*[# 107]+0.002*[#  77]+0.002*[# 113]+0.001*[#  36]+0.001*[# 108]
          
    |psi|^2 = 1.000
==== e(  55) =    -7.25727 eV ==== 
     psi = 0.089*[#  27]+0.088*[#  99]+0.058*[#   7]+0.058*[#  52]+0.035*[#  14]
          +0.035*[#  41]+0.033*[#   8]+0.033*[#  53]+0.033*[#  26]+0.033*[#  98]
          +0.031*[# 108]+0.031*[#  36]+0.029*[# 107]+0.029*[#  35]+0.028*[#  18]
          +0.028*[#  45]+0.025*[# 115]+0.025*[#  79]+0.024*[#  77]+0.024*[# 113]
          +0.020*[#  43]+0.020*[#  16]+0.016*[#   9]+0.016*[#  54]+0.015*[#  63]
          +0.015*[#  90]+0.014*[# 104]+0.014*[#  32]+0.011*[#  25]+0.011*[#  97]
          +0.009*[#  81]+0.009*[# 117]+0.007*[#  61]+0.007*[#  88]+0.006*[#   5]
          +0.006*[#  50]+0.004*[#  80]+0.004*[# 116]+0.003*[#  23]+0.003*[#  95]
          +0.002*[#  34]+0.002*[# 106]+0.002*[#  62]+0.001*[#  89]+0.001*[#  22]
          +0.001*[#  94]
    |psi|^2 = 1.000
==== e(  56) =    -7.25722 eV ==== 
     psi = 0.067*[#  79]+0.066*[# 115]+0.065*[# 104]+0.065*[#  32]+0.060*[#  59]
          +0.060*[#  86]+0.048*[#   5]+0.048*[#  50]+0.027*[#  33]+0.027*[# 105]
          +0.026*[#  18]+0.026*[#  45]+0.024*[#  61]+0.024*[#  88]+0.023*[#  62]
          +0.023*[#  89]+0.022*[#  60]+0.022*[#  87]+0.021*[#  25]+0.021*[#  97]
          +0.015*[#  34]+0.015*[# 106]+0.011*[#  27]+0.011*[#  99]+0.010*[#   6]
          +0.010*[#  17]+0.010*[#  44]+0.010*[#  51]+0.009*[#  77]+0.009*[# 113]
          +0.009*[#  78]+0.009*[# 114]+0.008*[#  16]+0.008*[#  43]+0.007*[#   7]
          +0.007*[#  52]+0.007*[#  63]+0.007*[#  90]+0.006*[#   8]+0.006*[#  53]
          +0.006*[#  26]+0.006*[#  98]+0.004*[#  36]+0.004*[# 108]+0.003*[#  35]
          +0.003*[# 107]+0.003*[#  80]+0.003*[# 116]+0.002*[#  23]+0.002*[#  95]
          +0.001*[#   9]+0.001*[#  54]+0.001*[#  14]+0.001*[#  41]
    |psi|^2 = 1.000
==== e(  57) =    -7.17395 eV ==== 
     psi = 0.068*[#  62]+0.068*[#  89]+0.063*[#  24]+0.063*[#  96]+0.050*[#  27]
          +0.049*[#  99]+0.048*[#  14]+0.047*[#  41]+0.045*[# 117]+0.044*[#  81]
          +0.034*[# 115]+0.033*[#  79]+0.033*[# 104]+0.033*[#  32]+0.025*[#  88]
          +0.024*[#  61]+0.023*[#  60]+0.023*[#  87]+0.021*[#  15]+0.020*[#  42]
          +0.016*[#  44]+0.015*[#  17]+0.011*[#  80]+0.011*[# 116]+0.010*[# 106]
          +0.010*[#  34]+0.009*[#   8]+0.009*[#  36]+0.009*[#  53]+0.008*[# 108]
          +0.006*[#  18]+0.006*[#  45]+0.006*[#  98]+0.006*[#  26]+0.004*[#  51]
          +0.004*[#   6]+0.003*[#  33]+0.003*[#  59]+0.003*[# 105]+0.003*[#  86]
          +0.003*[#  90]+0.002*[#   5]+0.002*[#  35]+0.002*[#  63]+0.002*[# 107]
          +0.002*[#  16]+0.002*[#  95]+0.002*[#  43]+0.002*[#  50]+0.002*[#  23]
          +0.001*[#  25]+0.001*[#  78]+0.001*[# 114]
    |psi|^2 = 1.000
==== e(  58) =    -7.17389 eV ==== 
     psi = 0.079*[# 115]+0.078*[#  79]+0.070*[#  59]+0.068*[#  86]+0.059*[#  43]
          +0.058*[#  16]+0.038*[#   5]+0.037*[#  50]+0.035*[#  51]+0.034*[#   6]
          +0.030*[#  34]+0.029*[# 106]+0.029*[#  32]+0.028*[# 104]+0.023*[#  90]
          +0.022*[#  17]+0.022*[#  63]+0.021*[#  44]+0.017*[#   8]+0.017*[#  53]
          +0.016*[#  35]+0.016*[# 107]+0.013*[#  15]+0.013*[#  18]+0.013*[#  42]
          +0.013*[#  45]+0.013*[#  54]+0.012*[#   9]+0.011*[#   7]+0.011*[#  52]
          +0.006*[#  78]+0.006*[# 117]+0.006*[#  81]+0.006*[# 105]+0.005*[#  33]
          +0.005*[#  41]+0.005*[# 114]+0.005*[#  14]+0.003*[#  80]+0.003*[# 116]
          +0.003*[#  87]+0.003*[#  60]+0.002*[#  27]+0.002*[# 108]+0.002*[#  36]
          +0.002*[#  99]+0.001*[#  62]+0.001*[#  88]+0.001*[#  89]
    |psi|^2 = 1.000
==== e(  59) =    -7.17384 eV ==== 
     psi = 0.078*[#  53]+0.078*[#   8]+0.065*[#  33]+0.065*[# 105]+0.050*[#  24]
          +0.050*[#  96]+0.050*[#  99]+0.049*[#  27]+0.045*[#  81]+0.045*[# 117]
          +0.029*[#  14]+0.029*[#  41]+0.028*[#   7]+0.028*[#  52]+0.018*[#  59]
          +0.018*[#  86]+0.018*[#  26]+0.017*[#  98]+0.015*[#  36]+0.014*[# 116]
          +0.014*[# 108]+0.014*[#  80]+0.013*[# 107]+0.013*[#  35]+0.012*[#  50]
          +0.011*[#   5]+0.011*[# 104]+0.011*[#  32]+0.010*[#  18]+0.009*[#  45]
          +0.007*[#  34]+0.007*[# 106]+0.006*[#  97]+0.006*[#  25]+0.005*[#  63]
          +0.005*[#  90]+0.005*[#  43]+0.005*[#  16]+0.005*[#  89]+0.004*[#  62]
          +0.004*[#  79]+0.004*[# 115]+0.004*[#   9]+0.004*[#  54]+0.003*[#  60]
          +0.003*[#  87]+0.002*[#  15]+0.002*[#  42]+0.002*[#  95]+0.002*[#  23]
          
    |psi|^2 = 1.000
==== e(  60) =    -7.16706 eV ==== 
     psi = 0.062*[#  23]+0.062*[#  95]+0.055*[#  18]+0.054*[#  45]+0.046*[#  36]
          +0.046*[# 108]+0.044*[#  33]+0.044*[# 105]+0.029*[#  62]+0.029*[#  89]
          +0.028*[# 107]+0.028*[#  35]+0.025*[#  26]+0.025*[#  98]+0.024*[#  63]
          +0.024*[#  90]+0.023*[#  61]+0.023*[#  88]+0.021*[#  25]+0.021*[#  97]
          +0.020*[#  15]+0.020*[# 113]+0.020*[#  42]+0.020*[#  77]+0.017*[#  53]
          +0.016*[#   8]+0.015*[# 117]+0.015*[#  81]+0.014*[# 114]+0.014*[#  78]
          +0.013*[#  52]+0.013*[#   7]+0.010*[#  44]+0.010*[#  50]+0.010*[#   5]
          +0.010*[#  17]+0.005*[#   6]+0.005*[#  51]+0.003*[#  34]+0.003*[# 106]
          +0.002*[#  41]+0.002*[#  14]+0.002*[#  75]+0.002*[# 111]+0.001*[#  86]
          +0.001*[#  59]+0.001*[#   2]+0.001*[#  13]+0.001*[#  24]+0.001*[#  32]
          +0.001*[#  40]+0.001*[#  47]+0.001*[#  96]+0.001*[# 104]
    |psi|^2 = 0.999
==== e(  61) =    -7.16690 eV ==== 
     psi = 0.098*[# 114]+0.098*[#  78]+0.082*[#  44]+0.082*[#  17]+0.058*[#  60]
          +0.058*[#  87]+0.051*[#  35]+0.051*[# 107]+0.026*[#   6]+0.025*[#  51]
          +0.025*[#  61]+0.025*[#  88]+0.023*[#  89]+0.023*[#  62]+0.018*[#  97]
          +0.018*[#  25]+0.018*[#  52]+0.018*[#   7]+0.018*[#  79]+0.017*[# 115]
          +0.015*[#  24]+0.015*[#  96]+0.012*[#  16]+0.011*[#  43]+0.009*[#  50]
          +0.009*[#   5]+0.007*[#  63]+0.007*[#  90]+0.007*[#  23]+0.007*[#  95]
          +0.006*[#  15]+0.006*[#  42]+0.005*[#  45]+0.005*[#  18]+0.004*[#  27]
          +0.004*[#  99]+0.003*[# 108]+0.003*[#  36]+0.002*[#   9]+0.002*[#  54]
          +0.002*[#  20]+0.002*[#  92]+0.002*[#  30]+0.002*[#  81]+0.002*[# 102]
          +0.001*[#  34]+0.001*[# 106]+0.001*[# 117]+0.001*[#  59]+0.001*[#  86]
          +0.001*[#   3]+0.001*[#  48]
    |psi|^2 = 0.999
==== e(  62) =    -7.16659 eV ==== 
     psi = 0.059*[#  50]+0.059*[#  97]+0.059*[#  25]+0.057*[#   5]+0.051*[#   9]
          +0.050*[#  54]+0.047*[#  86]+0.045*[#  59]+0.040*[#  77]+0.040*[# 113]
          +0.034*[#  23]+0.034*[#  95]+0.025*[#  63]+0.024*[#  78]+0.024*[#  90]
          +0.024*[# 114]+0.021*[#   7]+0.020*[#  52]+0.015*[#  42]+0.015*[#  17]
          +0.014*[#  15]+0.014*[#  41]+0.014*[#  44]+0.014*[#  14]+0.013*[# 106]
          +0.013*[#  32]+0.013*[#  34]+0.013*[#  61]+0.013*[# 104]+0.012*[#  88]
          +0.012*[# 116]+0.012*[#  80]+0.009*[#  26]+0.008*[#  98]+0.008*[#  99]
          +0.008*[#  27]+0.007*[#   6]+0.006*[#  51]+0.005*[# 108]+0.004*[#  36]
          +0.004*[#  87]+0.003*[#  60]+0.003*[#  79]+0.003*[#  81]+0.003*[# 115]
          +0.003*[# 117]+0.002*[#  31]+0.002*[#  35]+0.002*[# 103]+0.002*[#  89]
          +0.002*[# 107]+0.001*[#  62]+0.001*[#  74]+0.001*[# 110]+0.001*[#  12]
          +0.001*[#  33]+0.001*[#  39]+0.001*[#  96]
    |psi|^2 = 0.999
==== e(  63) =    -7.16637 eV ==== 
     psi = 0.063*[# 108]+0.062*[#  36]+0.052*[#  77]+0.052*[# 113]+0.049*[#  45]
          +0.048*[#  18]+0.044*[#  25]+0.043*[#  97]+0.041*[#  51]+0.040*[#   6]
          +0.039*[#  16]+0.039*[#  43]+0.034*[#  35]+0.034*[# 107]+0.026*[#  52]
          +0.026*[#   7]+0.022*[#  63]+0.022*[#  90]+0.020*[#   8]+0.019*[#  53]
          +0.019*[#  80]+0.019*[# 106]+0.019*[#  34]+0.019*[# 116]+0.016*[#  62]
          +0.016*[#  89]+0.008*[#  27]+0.008*[#  99]+0.007*[#   5]+0.007*[#  23]
          +0.007*[#  50]+0.007*[#  95]+0.006*[#  60]+0.006*[#  87]+0.005*[#  96]
          +0.005*[# 114]+0.005*[#  78]+0.005*[#  24]+0.004*[#  14]+0.004*[#  41]
          +0.002*[#  61]+0.002*[#  88]+0.002*[#  22]+0.002*[#  59]+0.002*[#  86]
          +0.002*[#  94]+0.002*[#  57]+0.002*[#  84]+0.001*[# 115]+0.001*[#  32]
          +0.001*[#  79]+0.001*[# 104]
    |psi|^2 = 0.999
==== e(  64) =    -6.96858 eV ==== 
     psi = 0.047*[#  89]+0.047*[#  62]+0.046*[#  35]+0.046*[# 107]+0.040*[#  23]
          +0.040*[#  95]+0.037*[#  17]+0.037*[#  44]+0.037*[#  77]+0.037*[# 113]
          +0.035*[#  61]+0.035*[#  88]+0.035*[#  18]+0.035*[#  45]+0.033*[#  36]
          +0.033*[# 108]+0.033*[#  87]+0.033*[#  60]+0.032*[#  78]+0.032*[# 114]
          +0.030*[#  16]+0.030*[#  43]+0.028*[#  25]+0.028*[#  97]+0.024*[#  33]
          +0.024*[# 105]+0.013*[#  26]+0.013*[#  98]+0.010*[#  80]+0.010*[# 116]
          +0.004*[#  24]+0.004*[#  96]+0.003*[#  34]+0.003*[#  79]+0.003*[# 106]
          +0.003*[# 115]+0.003*[#  15]+0.003*[#  42]+0.002*[#  81]+0.002*[# 117]
          +0.002*[#   6]+0.002*[#   7]+0.002*[#  51]+0.002*[#  52]+0.001*[#  27]
          +0.001*[#  99]
    |psi|^2 = 1.000
==== e(  65) =    -6.96843 eV ==== 
     psi = 0.090*[#  25]+0.090*[#  97]+0.058*[#  78]+0.058*[# 114]+0.055*[#  50]
          +0.055*[#   5]+0.054*[#  90]+0.054*[#  63]+0.040*[#  17]+0.040*[#  44]
          +0.035*[#   9]+0.035*[#  54]+0.031*[#   7]+0.031*[#  52]+0.029*[#  59]
          +0.029*[#  86]+0.017*[#  15]+0.017*[#  42]+0.016*[#  23]+0.016*[#  95]
          +0.015*[#  61]+0.015*[#  88]+0.012*[#  60]+0.012*[#  87]+0.009*[#  35]
          +0.009*[# 107]+0.008*[#  18]+0.008*[#  45]+0.005*[#  36]+0.005*[# 108]
          +0.004*[#  33]+0.004*[# 105]+0.004*[#  79]+0.004*[# 115]+0.004*[#  27]
          +0.004*[#  99]+0.003*[#   8]+0.003*[#  53]+0.003*[#  26]+0.003*[#  41]
          +0.003*[#  98]+0.003*[#  14]+0.003*[#  24]+0.003*[#  96]+0.001*[#  16]
          +0.001*[#  43]
    |psi|^2 = 1.000
==== e(  66) =    -6.96837 eV ==== 
     psi = 0.059*[#   6]+0.059*[#  51]+0.057*[#  36]+0.056*[# 108]+0.056*[# 113]
          +0.056*[#  77]+0.046*[#  18]+0.045*[#  45]+0.038*[#  35]+0.038*[# 107]
          +0.036*[#  23]+0.036*[#  95]+0.028*[#   7]+0.028*[#  52]+0.028*[# 114]
          +0.028*[#  78]+0.023*[#  34]+0.023*[# 106]+0.017*[#   8]+0.016*[#  53]
          +0.014*[# 116]+0.014*[#  80]+0.011*[#  15]+0.011*[#  42]+0.011*[#   5]
          +0.011*[#  50]+0.010*[#  26]+0.010*[#  98]+0.010*[#  60]+0.010*[#  87]
          +0.009*[#  17]+0.009*[#  44]+0.007*[#  63]+0.007*[#  90]+0.007*[#   9]
          +0.007*[#  54]+0.006*[#  32]+0.006*[# 104]+0.006*[#  14]+0.006*[#  41]
          +0.005*[#  16]+0.005*[#  43]+0.005*[#  81]+0.005*[# 117]+0.004*[#  62]
          +0.004*[#  89]+0.003*[#  59]+0.003*[#  86]+0.002*[#  27]+0.002*[#  99]
          +0.002*[#  33]+0.002*[# 105]
    |psi|^2 = 1.000
==== e(  67) =    -6.53446 eV ==== 
     psi = 0.040*[#  65]+0.039*[#  55]+0.039*[#  82]+0.029*[#  79]+0.029*[# 115]
          +0.027*[#  34]+0.027*[# 106]+0.026*[#  24]+0.026*[#  96]+0.025*[#  27]
          +0.025*[#  99]+0.023*[#  81]+0.023*[# 117]+0.023*[#  15]+0.023*[#  42]
          +0.021*[#   5]+0.021*[#  50]+0.020*[#  67]+0.020*[#   2]+0.020*[#  47]
          +0.019*[#  66]+0.017*[#   6]+0.017*[#  51]+0.016*[#   7]+0.016*[#  52]
          +0.016*[#  12]+0.016*[#  31]+0.016*[#  39]+0.016*[# 103]+0.015*[#  17]
          +0.015*[#  44]+0.012*[#  35]+0.012*[# 107]+0.012*[#  74]+0.012*[# 110]
          +0.011*[#  28]+0.011*[# 100]+0.011*[#  20]+0.011*[#  92]+0.010*[#  10]
          +0.010*[#  37]+0.010*[#  22]+0.010*[#  94]+0.009*[#  75]+0.009*[# 111]
          +0.007*[#  19]+0.007*[#  91]+0.007*[#  14]+0.007*[#  41]+0.006*[#  73]
          +0.006*[# 109]+0.006*[#  16]+0.006*[#  43]+0.005*[#  33]+0.005*[# 105]
          +0.005*[#   1]+0.005*[#  46]+0.005*[#  32]+0.005*[# 104]+0.004*[#   9]
          +0.004*[#  54]+0.004*[#  63]+0.004*[#  90]+0.003*[#  61]+0.003*[#  88]
          +0.002*[#  23]+0.002*[#  60]+0.002*[#  87]+0.002*[#  95]+0.002*[#  13]
          +0.002*[#  30]+0.002*[#  40]+0.002*[# 102]+0.001*[#  58]+0.001*[#  78]
          +0.001*[#  80]+0.001*[#  85]+0.001*[# 114]+0.001*[# 116]+0.001*[#   4]
          +0.001*[#  49]+0.001*[#  77]+0.001*[# 113]
    |psi|^2 = 0.998
==== e(  68) =    -6.53445 eV ==== 
     psi = 0.045*[#  59]+0.045*[#  86]+0.037*[#  65]+0.033*[#   1]+0.033*[#  46]
          +0.033*[#  67]+0.031*[#  79]+0.031*[# 115]+0.030*[#  16]+0.030*[#  43]
          +0.029*[#  24]+0.029*[#  96]+0.025*[#  27]+0.025*[#  99]+0.023*[#  28]
          +0.023*[# 100]+0.023*[#  33]+0.023*[# 105]+0.018*[#  13]+0.018*[#  40]
          +0.016*[#  81]+0.016*[# 117]+0.015*[#  56]+0.015*[#  83]+0.013*[#  63]
          +0.013*[#  90]+0.013*[#  74]+0.013*[# 110]+0.012*[#  20]+0.012*[#  92]
          +0.011*[#  10]+0.011*[#  22]+0.011*[#  37]+0.011*[#  94]+0.011*[#  18]
          +0.011*[#  45]+0.010*[#  73]+0.010*[# 109]+0.009*[#  30]+0.009*[#  66]
          +0.009*[# 102]+0.009*[#   9]+0.009*[#  54]+0.008*[#  58]+0.008*[#  85]
          +0.007*[#  26]+0.007*[#  98]+0.006*[#   5]+0.006*[#  50]+0.006*[#  75]
          +0.006*[# 111]+0.004*[#   3]+0.004*[#  17]+0.004*[#  35]+0.004*[#  44]
          +0.004*[#  48]+0.004*[# 107]+0.004*[#  14]+0.004*[#  41]+0.004*[#  60]
          +0.004*[#  87]+0.003*[#  25]+0.003*[#  97]+0.003*[#  36]+0.003*[# 108]
          +0.002*[#   8]+0.002*[#  53]+0.003*[#  78]+0.003*[# 114]+0.002*[#  62]
          +0.002*[#  89]+0.002*[#  57]+0.002*[#  84]+0.001*[#  32]+0.001*[# 104]
          +0.001*[#   2]+0.001*[#  31]+0.001*[#  47]+0.001*[# 103]
    |psi|^2 = 0.998
==== e(  69) =    -6.53443 eV ==== 
     psi = 0.052*[#   8]+0.052*[#  53]+0.051*[#  66]+0.036*[#  62]+0.036*[#  89]
          +0.035*[#  32]+0.035*[# 104]+0.034*[#  14]+0.034*[#  41]+0.031*[#  19]
          +0.031*[#  91]+0.027*[#  67]+0.023*[#  73]+0.023*[# 109]+0.018*[#  10]
          +0.018*[#  37]+0.018*[#  80]+0.018*[# 116]+0.016*[#  57]+0.016*[#  84]
          +0.014*[#   4]+0.014*[#  49]+0.013*[#  61]+0.013*[#  88]+0.012*[#  81]
          +0.012*[# 117]+0.012*[#  60]+0.012*[#  87]+0.012*[#  33]+0.012*[# 105]
          +0.011*[#  30]+0.011*[# 102]+0.011*[#  26]+0.011*[#  98]+0.010*[#  36]
          +0.010*[# 108]+0.010*[#   3]+0.010*[#  48]+0.008*[#  11]+0.008*[#  38]
          +0.008*[#  58]+0.008*[#  85]+0.008*[#  75]+0.008*[# 111]+0.007*[#  29]
          +0.007*[# 101]+0.005*[#   7]+0.005*[#  24]+0.005*[#  52]+0.005*[#  96]
          +0.005*[#   6]+0.005*[#  28]+0.005*[#  51]+0.005*[# 100]+0.004*[#  18]
          +0.004*[#  45]+0.004*[#  12]+0.004*[#  39]+0.004*[#  27]+0.004*[#  31]
          +0.004*[#  76]+0.004*[#  99]+0.004*[# 103]+0.004*[# 112]+0.003*[#  21]
          +0.003*[#  22]+0.002*[#  40]+0.003*[#  93]+0.003*[#  94]+0.002*[#  13]
          +0.002*[#   1]+0.002*[#  20]+0.002*[#  46]+0.002*[#  59]+0.002*[#  65]
          +0.002*[#  86]+0.002*[#  92]+0.001*[#  63]+0.001*[#  77]+0.001*[#  90]
          +0.001*[# 113]
    |psi|^2 = 0.998
==== e(  70) =    -5.83384 eV ==== 
     psi = 0.182*[#  64]+0.051*[#   1]+0.051*[#  10]+0.051*[#  19]+0.051*[#  28]
          +0.051*[#  37]+0.051*[#  46]+0.051*[#  55]+0.051*[#  73]+0.051*[#  82]
          +0.051*[#  91]+0.051*[# 100]+0.051*[# 109]+0.010*[#  26]+0.010*[#  98]
          +0.010*[#  80]+0.010*[# 116]+0.009*[#   9]+0.009*[#  54]+0.008*[#  15]
          +0.008*[#  42]+0.007*[#  34]+0.007*[# 106]+0.007*[#  61]+0.007*[#  88]
          +0.006*[#  32]+0.006*[# 104]+0.006*[#  60]+0.006*[#  87]+0.005*[#  14]
          +0.005*[#  41]+0.004*[#  63]+0.004*[#  90]+0.004*[#  77]+0.004*[# 113]
          +0.004*[#  23]+0.004*[#  95]+0.004*[#   6]+0.003*[#   7]+0.003*[#  51]
          +0.003*[#  52]+0.003*[#  16]+0.003*[#  43]+0.003*[#  33]+0.003*[#  81]
          +0.003*[# 105]+0.003*[# 117]+0.002*[#  27]+0.002*[#  99]+0.001*[#   5]
          +0.001*[#  18]+0.001*[#  45]+0.001*[#  50]
    |psi|^2 = 0.998
==== e(  71) =    -4.12951 eV ==== 
     psi = 0.058*[#  20]+0.058*[#  92]+0.056*[#  28]+0.056*[# 100]+0.050*[#  73]
          +0.050*[# 109]+0.049*[#  58]+0.049*[#  85]+0.045*[#   1]+0.045*[#  46]
          +0.036*[#  30]+0.036*[# 102]+0.031*[#  56]+0.031*[#  83]+0.025*[#  31]
          +0.025*[# 103]+0.022*[#  55]+0.022*[#  82]+0.019*[#  12]+0.019*[#  39]
          +0.012*[#  19]+0.012*[#  91]+0.011*[#  57]+0.011*[#  84]+0.009*[#  29]
          +0.009*[# 101]+0.008*[#   4]+0.008*[#  49]+0.007*[#  76]+0.007*[# 112]
          +0.006*[#  75]+0.006*[# 111]+0.006*[#  11]+0.006*[#  38]+0.004*[#  24]
          +0.004*[#  96]+0.004*[#  17]+0.004*[#  44]+0.004*[#  10]+0.004*[#  37]
          +0.003*[#  62]+0.003*[#  89]+0.003*[#   6]+0.003*[#  51]+0.003*[#  78]
          +0.003*[# 114]+0.002*[#  13]+0.002*[#  40]+0.002*[#  74]+0.002*[# 110]
          +0.002*[#  59]+0.002*[#  86]+0.002*[#  34]+0.002*[# 106]+0.002*[#  18]
          +0.002*[#  33]+0.002*[#  45]+0.002*[# 105]
    |psi|^2 = 0.989
==== e(  72) =    -4.12926 eV ==== 
     psi = 0.063*[#  75]+0.063*[# 111]+0.061*[#  55]+0.061*[#  82]+0.057*[#  19]
          +0.057*[#  91]+0.054*[#  10]+0.054*[#  37]+0.051*[#   4]+0.051*[#  49]
          +0.048*[#  12]+0.048*[#  39]+0.032*[#  20]+0.032*[#  92]+0.019*[#   2]
          +0.019*[#  47]+0.016*[#  58]+0.016*[#  85]+0.012*[#   3]+0.012*[#  48]
          +0.011*[#  73]+0.011*[# 109]+0.009*[#  22]+0.009*[#  76]+0.009*[#  94]
          +0.009*[# 112]+0.005*[#  81]+0.005*[# 117]+0.004*[#   1]+0.004*[#  46]
          +0.004*[#  21]+0.004*[#  93]+0.004*[#   8]+0.004*[#  53]+0.003*[#   5]
          +0.003*[#  50]+0.003*[#  28]+0.003*[# 100]+0.002*[#  36]+0.002*[# 108]
          +0.002*[#  14]+0.002*[#  15]+0.002*[#  35]+0.002*[#  41]+0.002*[#  42]
          +0.002*[# 107]+0.002*[#  24]+0.002*[#  96]+0.002*[#  23]+0.002*[#  33]
          +0.002*[#  74]+0.002*[#  95]+0.002*[# 105]+0.002*[# 110]+0.001*[#  11]
          +0.001*[#  38]+0.001*[#  60]+0.001*[#  61]+0.001*[#  87]+0.001*[#  88]
          
    |psi|^2 = 0.989
==== e(  73) =    -4.12891 eV ==== 
     psi = 0.065*[#  13]+0.065*[#  40]+0.060*[#  73]+0.060*[# 109]+0.058*[#  30]
          +0.058*[# 102]+0.054*[#   1]+0.054*[#  46]+0.040*[#   2]+0.040*[#  47]
          +0.038*[#  19]+0.038*[#  91]+0.026*[#  22]+0.026*[#  94]+0.023*[#  11]
          +0.023*[#  38]+0.021*[#  75]+0.021*[# 111]+0.020*[#  29]+0.020*[# 101]
          +0.018*[#  28]+0.018*[# 100]+0.016*[#  10]+0.016*[#  37]+0.005*[#  74]
          +0.005*[# 110]+0.005*[#  20]+0.005*[#  92]+0.004*[#  63]+0.004*[#  90]
          +0.003*[#  55]+0.003*[#  82]+0.003*[#  16]+0.003*[#  43]+0.003*[#  14]
          +0.003*[#  33]+0.003*[#  41]+0.003*[# 105]+0.002*[#  32]+0.002*[#  58]
          +0.002*[#  85]+0.002*[# 104]+0.002*[#   9]+0.002*[#  25]+0.002*[#  54]
          +0.002*[#  78]+0.002*[#  97]+0.002*[# 114]+0.002*[#  31]+0.002*[# 103]
          +0.002*[#  27]+0.002*[#  99]+0.001*[#   6]+0.001*[#  23]+0.001*[#  51]
          +0.001*[#  95]+0.001*[#  60]+0.001*[#  81]+0.001*[#  87]+0.001*[# 117]
          +0.001*[#   4]+0.001*[#   7]
    |psi|^2 = 0.989
==== e(  74) =    -4.12876 eV ==== 
     psi = 0.084*[#  10]+0.084*[#  37]+0.078*[#  74]+0.078*[# 110]+0.042*[#  57]
          +0.042*[#  84]+0.038*[#  31]+0.038*[# 103]+0.037*[#   1]+0.037*[#  46]
          +0.032*[#  19]+0.032*[#  91]+0.029*[#  13]+0.029*[#  40]+0.028*[#  56]
          +0.028*[#  83]+0.027*[#  55]+0.027*[#  82]+0.013*[#  12]+0.013*[#  39]
          +0.010*[#  28]+0.010*[# 100]+0.010*[#  11]+0.010*[#  38]+0.007*[#  20]
          +0.007*[#  29]+0.007*[#  92]+0.007*[# 101]+0.007*[#  58]+0.007*[#  85]
          +0.005*[#  79]+0.005*[# 115]+0.004*[#  30]+0.004*[# 102]+0.004*[#  62]
          +0.004*[#  89]+0.003*[#  25]+0.003*[#  97]+0.003*[#   4]+0.003*[#  35]
          +0.003*[#  49]+0.003*[# 107]+0.003*[#  36]+0.003*[# 108]+0.002*[#   7]
          +0.002*[#  52]+0.002*[#  21]+0.002*[#  93]+0.002*[#  59]+0.002*[#  86]
          +0.001*[#  15]+0.001*[#  17]+0.001*[#  32]+0.001*[#  42]+0.001*[#  44]
          +0.001*[# 104]
    |psi|^2 = 0.989
==== e(  75) =    -4.12849 eV ==== 
     psi = 0.071*[#  28]+0.071*[# 100]+0.066*[#  22]+0.066*[#  94]+0.054*[#   3]
          +0.054*[#  48]+0.044*[#  55]+0.044*[#  82]+0.036*[#  73]+0.037*[# 109]
          +0.032*[#   2]+0.032*[#  47]+0.028*[#  57]+0.028*[#  84]+0.024*[#  31]
          +0.024*[# 103]+0.020*[#  19]+0.020*[#  91]+0.020*[#  74]+0.020*[# 110]
          +0.018*[#   1]+0.018*[#  46]+0.011*[#  21]+0.011*[#  93]+0.010*[#  75]
          +0.010*[# 111]+0.008*[#  56]+0.008*[#  83]+0.004*[#  12]+0.004*[#  39]
          +0.004*[#  27]+0.004*[#  99]+0.004*[#   4]+0.004*[#  49]+0.003*[#  18]
          +0.003*[#  45]+0.003*[#  20]+0.003*[#  92]+0.003*[#   8]+0.003*[#  53]
          +0.002*[#   5]+0.002*[#  50]+0.003*[#  77]+0.003*[# 113]+0.002*[#  58]
          +0.002*[#  85]+0.002*[#  11]+0.002*[#  16]+0.002*[#  38]+0.002*[#  43]
          +0.002*[#  61]+0.002*[#  88]+0.002*[#  34]+0.002*[#  59]+0.002*[#  86]
          +0.002*[# 106]+0.001*[#  26]+0.001*[#  98]+0.001*[#   7]+0.001*[#  52]
          +0.001*[#  80]+0.001*[# 112]+0.001*[# 116]+0.001*[#  60]+0.001*[#  76]
          +0.001*[#  36]+0.001*[#  79]+0.001*[#  87]
    |psi|^2 = 0.989
==== e(  76) =    -2.91236 eV ==== 
     psi = 0.129*[#  65]+0.067*[#  67]+0.061*[#  66]+0.046*[#  55]+0.046*[#  82]
          +0.036*[#  56]+0.036*[#  83]+0.026*[#  29]+0.026*[# 101]+0.025*[#  11]
          +0.025*[#  38]+0.024*[#  58]+0.024*[#  85]+0.021*[#  57]+0.021*[#  84]
          +0.017*[#  21]+0.017*[#  93]+0.016*[#  76]+0.016*[# 112]+0.013*[#  28]
          +0.013*[# 100]+0.012*[#  10]+0.012*[#  37]+0.011*[#   4]+0.011*[#  49]
          +0.010*[#   3]+0.010*[#  20]+0.010*[#  48]+0.010*[#  92]+0.009*[#  74]
          +0.009*[# 110]+0.009*[#  19]+0.009*[#  91]+0.008*[#  13]+0.008*[#  40]
          +0.008*[#  73]+0.008*[# 109]+0.008*[#  30]+0.008*[# 102]+0.006*[#  61]
          +0.006*[#  88]+0.006*[#   1]+0.006*[#  46]+0.005*[#  60]+0.005*[#  87]
          +0.005*[#   2]+0.005*[#  47]+0.005*[#  63]+0.005*[#  90]+0.004*[#  34]
          +0.004*[# 106]+0.004*[#  15]+0.004*[#  42]+0.003*[#  22]+0.003*[#  94]
          +0.002*[#  75]+0.002*[# 111]+0.002*[#  27]+0.002*[#  81]+0.002*[#  99]
          +0.002*[# 117]+0.002*[#   6]+0.002*[#   7]+0.002*[#  51]+0.002*[#  52]
          +0.001*[#  26]+0.001*[#  31]+0.001*[#  98]+0.001*[#  23]+0.001*[#  95]
          +0.001*[# 103]
    |psi|^2 = 0.991
==== e(  77) =    -2.91229 eV ==== 
     psi = 0.149*[#  67]+0.105*[#  66]+0.054*[#  76]+0.054*[# 112]+0.041*[#  21]
          +0.041*[#  93]+0.037*[#  73]+0.036*[# 109]+0.029*[#  19]+0.029*[#  91]
          +0.020*[#  31]+0.020*[# 103]+0.017*[#  28]+0.017*[# 100]+0.016*[#  22]
          +0.016*[#  94]+0.015*[#  13]+0.015*[#  40]+0.014*[#  75]+0.014*[# 111]
[...]
          +0.002*[# 105]+0.001*[#  13]+0.001*[#  40]
    |psi|^2 = 0.989
==== e(  76) =    -2.76049 eV ==== 
     psi = 0.193*[#  65]+0.060*[#  66]+0.052*[#  29]+0.052*[# 101]+0.038*[#  56]
          +0.038*[#  83]+0.038*[#  28]+0.038*[# 100]+0.033*[#  55]+0.033*[#  82]
          +0.032*[#  11]+0.032*[#  38]+0.021*[#  21]+0.021*[#  93]+0.017*[#  57]
          +0.017*[#  84]+0.016*[#  20]+0.016*[#  92]+0.015*[#  19]+0.015*[#  91]
          +0.015*[#   2]+0.015*[#  47]+0.014*[#  74]+0.014*[# 110]+0.012*[#  10]
          +0.012*[#  37]+0.010*[#  30]+0.010*[# 102]+0.007*[#  34]+0.007*[# 106]
          +0.005*[#  58]+0.005*[#  75]+0.005*[#  85]+0.005*[# 111]+0.005*[#  61]
          +0.005*[#  88]+0.004*[#   3]+0.004*[#  48]+0.004*[#  63]+0.004*[#  90]
          +0.004*[#  32]+0.003*[# 104]+0.003*[#  15]+0.003*[#  42]+0.003*[#  26]
          +0.003*[#  98]+0.003*[#  31]+0.003*[# 103]+0.002*[#  60]+0.002*[#  87]
          +0.002*[#  23]+0.002*[#  95]+0.001*[#  79]+0.001*[# 115]+0.001*[#  33]
          +0.001*[# 105]+0.001*[#  12]+0.001*[#  27]+0.001*[#  39]+0.001*[#  99]
          
    |psi|^2 = 0.992
==== e(  77) =    -2.76047 eV ==== 
     psi = 0.130*[#  67]+0.092*[#  66]+0.048*[#   1]+0.048*[#  46]+0.037*[#   4]
          +0.037*[#  49]+0.031*[#   3]+0.031*[#  48]+0.030*[#  65]+0.030*[#  76]
          +0.030*[# 112]+0.019*[#  58]+0.019*[#  85]+0.019*[#  21]+0.019*[#  93]
          +0.016*[#  31]+0.016*[# 103]+0.015*[#  57]+0.015*[#  84]+0.014*[#  73]
          +0.014*[# 109]+0.012*[#  55]+0.012*[#  82]+0.012*[#  12]+0.012*[#  39]
          +0.011*[#   2]+0.011*[#  47]+0.011*[#  29]+0.011*[# 101]+0.010*[#  28]
          +0.010*[# 100]+0.008*[#  11]+0.008*[#  38]+0.008*[#   9]+0.008*[#  54]
          +0.008*[#  19]+0.008*[#  91]+0.007*[#  22]+0.007*[#  94]+0.007*[#  13]
          +0.007*[#  40]+0.006*[#  10]+0.006*[#  37]+0.004*[#  30]+0.004*[# 102]
          +0.004*[#  75]+0.004*[# 111]+0.003*[#   6]+0.003*[#  51]+0.003*[#   7]
          +0.003*[#  52]+0.003*[#  81]+0.003*[# 117]+0.002*[#  27]+0.002*[#  33]
          +0.002*[#  99]+0.002*[# 105]+0.002*[#  16]+0.002*[#  43]+0.002*[#  61]
          +0.002*[#  74]+0.002*[#  88]+0.002*[# 110]+0.002*[#  20]+0.002*[#  60]
          +0.002*[#  87]+0.002*[#  92]+0.001*[#  59]+0.001*[#  86]+0.001*[#  32]
          +0.001*[#  80]+0.001*[# 104]+0.001*[# 116]
    |psi|^2 = 0.992
==== e(  78) =    -2.76038 eV ==== 
     psi = 0.122*[#  67]+0.101*[#  66]+0.046*[#  76]+0.046*[# 112]+0.036*[#  21]
          +0.036*[#  93]+0.035*[#  73]+0.035*[# 109]+0.031*[#  10]+0.031*[#  37]
          +0.030*[#  65]+0.026*[#  19]+0.026*[#  91]+0.020*[#  11]+0.020*[#  38]
          +0.020*[#  12]+0.020*[#  39]+0.017*[#  13]+0.017*[#  40]+0.014*[#  22]
          +0.014*[#  58]+0.014*[#  85]+0.014*[#  94]+0.014*[#  75]+0.014*[# 111]
          +0.011*[#  31]+0.011*[# 103]+0.009*[#   3]+0.009*[#  48]+0.009*[#  30]
          +0.009*[# 102]+0.008*[#  80]+0.008*[# 116]+0.007*[#   4]+0.007*[#  49]
          +0.006*[#  26]+0.006*[#  98]+0.005*[#  56]+0.005*[#  83]+0.005*[#  14]
          +0.005*[#  41]+0.004*[#  15]+0.004*[#  42]+0.004*[#  57]+0.004*[#  84]
          +0.004*[#  55]+0.004*[#  82]+0.003*[#   2]+0.003*[#  47]+0.003*[#  77]
          +0.003*[# 113]+0.003*[#  74]+0.003*[# 110]+0.002*[#  32]+0.002*[# 104]
          +0.002*[#  23]+0.002*[#  95]+0.002*[#  28]+0.002*[# 100]+0.001*[#  20]
          +0.001*[#  60]+0.001*[#  87]+0.001*[#   8]+0.001*[#  53]+0.001*[#  92]
          
    |psi|^2 = 0.992
==== e(  79) =    -1.78983 eV ==== 
     psi = 0.098*[#  55]+0.098*[#  82]+0.090*[#  19]+0.090*[#  91]+0.082*[#  10]
          +0.082*[#  37]+0.059*[#  21]+0.059*[#  93]+0.039*[#  11]+0.039*[#  38]
          +0.028*[#  56]+0.028*[#  83]+0.022*[#  58]+0.022*[#  85]+0.019*[#  57]
          +0.019*[#  84]+0.013*[#  12]+0.013*[#  39]+0.009*[#  73]+0.009*[# 109]
          +0.006*[#  76]+0.006*[# 112]+0.005*[#  13]+0.005*[#  40]+0.005*[#   1]
          +0.005*[#  46]+0.003*[#  22]+0.003*[#  94]+0.002*[#  28]+0.002*[# 100]
          +0.001*[#   3]+0.001*[#   4]+0.001*[#  48]+0.001*[#  49]+0.001*[#  29]
          +0.001*[#  78]+0.001*[# 101]+0.001*[# 114]
    |psi|^2 = 0.996
==== e(  80) =    -1.78982 eV ==== 
     psi = 0.141*[#  28]+0.141*[# 100]+0.072*[#  29]+0.072*[# 101]+0.045*[#  55]
          +0.045*[#  82]+0.038*[#  73]+0.038*[# 109]+0.028*[#   1]+0.028*[#  46]
          +0.025*[#  76]+0.025*[# 112]+0.020*[#  10]+0.020*[#  37]+0.018*[#  31]
          +0.018*[# 103]+0.015*[#  19]+0.015*[#  91]+0.013*[#  56]+0.013*[#  83]
          +0.010*[#  21]+0.010*[#  93]+0.010*[#  58]+0.010*[#  85]+0.009*[#  11]
          +0.009*[#  38]+0.009*[#  57]+0.009*[#  84]+0.008*[#   3]+0.008*[#   4]
          +0.008*[#  48]+0.008*[#  49]+0.007*[#  30]+0.007*[# 102]+0.003*[#   2]
          +0.003*[#  12]+0.003*[#  39]+0.003*[#  47]+0.002*[#  75]+0.002*[#  77]
          +0.002*[# 111]+0.002*[# 113]+0.001*[#   6]+0.001*[#  13]+0.001*[#  40]
          +0.001*[#  51]+0.001*[#  61]+0.001*[#  88]+0.001*[#  18]+0.001*[#  45]
          
    |psi|^2 = 0.996
==== e(  81) =    -1.78956 eV ==== 
     psi = 0.110*[#   1]+0.110*[#  46]+0.097*[#  73]+0.097*[# 109]+0.063*[#  76]
          +0.063*[# 112]+0.041*[#  10]+0.041*[#  37]+0.038*[#  19]+0.038*[#  91]
          +0.032*[#   3]+0.032*[#  48]+0.032*[#   4]+0.032*[#  49]+0.025*[#  21]
          +0.025*[#  93]+0.020*[#  11]+0.020*[#  38]+0.013*[#   2]+0.013*[#  47]
          +0.007*[#  12]+0.007*[#  39]+0.004*[#  75]+0.004*[# 111]+0.003*[#  13]
          +0.003*[#  40]+0.001*[#  94]+0.001*[#   9]+0.001*[#  22]+0.001*[#  54]
          +0.001*[#  17]+0.001*[#  44]
    |psi|^2 = 0.996
==== e(  82) =    -1.25269 eV ==== 
     psi = 0.098*[#  22]+0.098*[#  94]+0.071*[#  57]+0.071*[#  84]+0.070*[#   2]
          +0.070*[#  47]+0.049*[#  30]+0.049*[# 102]+0.038*[#  13]+0.038*[#  40]
          +0.033*[#   3]+0.033*[#  48]+0.031*[#  75]+0.031*[# 111]+0.029*[#  56]
          +0.029*[#  83]+0.022*[#  74]+0.022*[# 110]+0.015*[#  12]+0.015*[#  39]
          +0.005*[#  21]+0.005*[#  93]+0.004*[#  29]+0.004*[# 101]+0.003*[#  58]
          +0.003*[#  85]+0.001*[#  18]+0.001*[#  45]+0.001*[#  76]+0.001*[#  77]
          +0.001*[# 112]+0.001*[# 113]+0.001*[#   7]+0.001*[#  52]
    |psi|^2 = 0.965
==== e(  83) =    -1.25203 eV ==== 
     psi = 0.124*[#  74]+0.124*[# 110]+0.114*[#  31]+0.114*[# 103]+0.046*[#  13]
          +0.045*[#  40]+0.032*[#  29]+0.032*[# 101]+0.032*[#  58]+0.032*[#  85]
          +0.030*[#  56]+0.030*[#  83]+0.027*[#  11]+0.027*[#  38]+0.023*[#  12]
          +0.023*[#  39]+0.017*[#   3]+0.017*[#  48]+0.008*[#  20]+0.008*[#  92]
          +0.007*[#   4]+0.007*[#  49]+0.006*[#   2]+0.006*[#  47]+0.003*[#  22]
          +0.003*[#  94]+0.002*[#  25]+0.002*[#  97]+0.001*[#   5]+0.001*[#  50]
          +0.001*[#  63]+0.001*[#  90]
    |psi|^2 = 0.965
==== e(  84) =    -1.25152 eV ==== 
     psi = 0.075*[#   4]+0.075*[#  49]+0.072*[#  20]+0.072*[#  92]+0.068*[#  12]
          +0.068*[#  39]+0.048*[#  75]+0.048*[# 111]+0.041*[#   3]+0.040*[#  48]
          +0.036*[#  13]+0.036*[#  40]+0.025*[#  30]+0.025*[# 102]+0.023*[#  22]
          +0.023*[#  94]+0.021*[#  57]+0.021*[#  84]+0.020*[#  56]+0.020*[#  83]
          +0.013*[#   2]+0.013*[#  47]+0.010*[#  74]+0.010*[# 110]+0.006*[#  11]
          +0.006*[#  38]+0.004*[#  21]+0.004*[#  93]+0.004*[#  29]+0.004*[#  76]
          +0.004*[# 101]+0.004*[# 112]+0.002*[#  35]+0.002*[# 107]+0.001*[#  78]
          +0.001*[# 114]+0.001*[#  62]+0.001*[#  89]
    |psi|^2 = 0.965
==== e(  85) =    -1.25105 eV ==== 
     psi = 0.075*[#  20]+0.075*[#  92]+0.071*[#  58]+0.071*[#  85]+0.070*[#  30]
          +0.070*[# 102]+0.068*[#  75]+0.068*[# 111]+0.042*[#   2]+0.042*[#  47]
          +0.026*[#  22]+0.026*[#  94]+0.023*[#  13]+0.023*[#  40]+0.021*[#  57]
          +0.021*[#  84]+0.016*[#  11]+0.016*[#  38]+0.015*[#  12]+0.015*[#  39]
          +0.014*[#  56]+0.014*[#  83]+0.013*[#  31]+0.013*[# 103]+0.009*[#   4]
          +0.009*[#  49]+0.004*[#  76]+0.004*[# 112]+0.002*[#   6]+0.002*[#  78]
          +0.002*[# 114]+0.001*[#  36]+0.002*[#  51]+0.001*[# 108]+0.001*[#  74]
          +0.001*[# 110]
    |psi|^2 = 0.965
==== e(  86) =    -0.73923 eV ==== 
     psi = 0.192*[#  64]+0.042*[#  21]+0.042*[#  93]+0.042*[#  76]+0.042*[# 112]
          +0.033*[#  29]+0.033*[# 101]+0.031*[#  11]+0.031*[#  38]+0.019*[#   3]
          +0.019*[#  48]+0.019*[#   4]+0.019*[#  49]+0.018*[#  56]+0.018*[#  83]
          +0.014*[#  58]+0.014*[#  85]+0.012*[#  57]+0.012*[#  84]+0.010*[#  12]
          +0.010*[#  39]+0.008*[#  31]+0.008*[# 103]+0.007*[#   2]+0.007*[#  47]
          +0.007*[#   1]+0.007*[#  10]+0.007*[#  19]+0.007*[#  28]+0.007*[#  37]
          +0.007*[#  46]+0.007*[#  55]+0.007*[#  73]+0.007*[#  82]+0.007*[#  91]
          +0.007*[# 100]+0.007*[# 109]+0.004*[#  13]+0.004*[#  40]+0.003*[#  30]
          +0.003*[# 102]+0.003*[#  75]+0.003*[# 111]+0.002*[#  22]+0.002*[#  94]
          
    |psi|^2 = 0.809
==== e(  87) =    -0.18552 eV ==== 
     psi = 0.012*[#  64]+0.003*[#  21]+0.003*[#  76]+0.003*[#  93]+0.003*[# 112]
          +0.002*[#  29]+0.002*[# 101]+0.002*[#  11]+0.002*[#  38]+0.001*[#   3]
          +0.001*[#   4]+0.001*[#  48]+0.001*[#  49]
    |psi|^2 = 0.050
==== e(  88) =    -0.11300 eV ==== 
     psi = 0.079*[#  21]+0.079*[#  93]+0.043*[#  29]+0.043*[# 101]+0.027*[#  12]
          +0.027*[#  39]+0.026*[#  31]+0.026*[# 103]+0.021*[#  11]+0.021*[#  38]
          +0.018*[#  76]+0.018*[# 112]+0.013*[#  30]+0.013*[# 102]+0.010*[#   2]
          +0.010*[#  47]+0.008*[#  13]+0.008*[#  40]+0.006*[#   4]+0.006*[#  49]
          +0.005*[#  22]+0.005*[#  94]+0.005*[#  57]+0.005*[#  84]+0.003*[#  58]
          +0.003*[#  85]+0.002*[#   3]+0.002*[#  48]+0.002*[#  20]+0.002*[#  92]
          
    |psi|^2 = 0.546
==== e(  89) =    -0.11239 eV ==== 
     psi = 0.133*[#  76]+0.133*[# 112]+0.078*[#  21]+0.078*[#  93]+0.018*[#  75]
          +0.018*[# 111]+0.010*[#  22]+0.010*[#  94]+0.008*[#  11]+0.008*[#  38]
          +0.005*[#   3]+0.005*[#  13]+0.005*[#  40]+0.005*[#  48]+0.003*[#  31]
          +0.003*[# 103]+0.003*[#  58]+0.003*[#  85]+0.002*[#  57]+0.002*[#  84]
          +0.002*[#   4]+0.002*[#  49]+0.001*[#  20]+0.001*[#  73]+0.001*[#  92]
          +0.001*[# 109]
    |psi|^2 = 0.549

Lowdin Charges: 

     Atom #   1: total charge =  11.0683, s =  0.5913, p =  0.6273, d =  9.8497, 
                 spin up      =   5.6587, s =  0.3447, 
                 spin up      =   5.6587, p =  0.3841, pz=  0.1449, px=  0.1194, py=  0.1198, 
                 spin up      =   5.6587, d =  4.9299, dz2=  0.9880, dxz=  0.9856, dyz=  0.9856, dx2-y2=  0.9903, dxy=  0.9803, 
                 spin down    =   5.4097, s =  0.2466, 
                 spin down    =   5.4097, p =  0.2432, pz=  0.0878, px=  0.0779, py=  0.0775, 
                 spin down    =   5.4097, d =  4.9198, dz2=  0.9855, dxz=  0.9837, dyz=  0.9838, dx2-y2=  0.9869, dxy=  0.9799, 
                 polarization =   0.2490, s =  0.0980, p =  0.1408, d =  0.0101, 
     Atom #   2: total charge =  11.0682, s =  0.5916, p =  0.6270, d =  9.8497, 
                 spin up      =   5.6588, s =  0.3447, 
                 spin up      =   5.6588, p =  0.3842, pz=  0.0936, px=  0.1386, py=  0.1520, 
                 spin up      =   5.6588, d =  4.9299, dz2=  0.9857, dxz=  0.9817, dyz=  0.9866, dx2-y2=  0.9884, dxy=  0.9875, 
                 spin down    =   5.4095, s =  0.2469, 
                 spin down    =   5.4095, p =  0.2428, pz=  0.0674, px=  0.0849, py=  0.0905, 
                 spin down    =   5.4095, d =  4.9198, dz2=  0.9836, dxz=  0.9808, dyz=  0.9843, dx2-y2=  0.9858, dxy=  0.9852, 
                 polarization =   0.2493, s =  0.0978, p =  0.1414, d =  0.0101, 
     Atom #   3: total charge =  11.0682, s =  0.5916, p =  0.6269, d =  9.8497, 
                 spin up      =   5.6587, s =  0.3447, 
                 spin up      =   5.6587, p =  0.3841, pz=  0.1601, px=  0.0678, py=  0.1563, 
                 spin up      =   5.6587, d =  4.9299, dz2=  0.9843, dxz=  0.9902, dyz=  0.9878, dx2-y2=  0.9794, dxy=  0.9882, 
                 spin down    =   5.4095, s =  0.2469, 
                 spin down    =   5.4095, p =  0.2428, pz=  0.0929, px=  0.0573, py=  0.0925, 
                 spin down    =   5.4095, d =  4.9198, dz2=  0.9829, dxz=  0.9867, dyz=  0.9856, dx2-y2=  0.9792, dxy=  0.9854, 
                 polarization =   0.2492, s =  0.0978, p =  0.1413, d =  0.0101, 
     Atom #   4: total charge =  11.0682, s =  0.5917, p =  0.6269, d =  9.8497, 
                 spin up      =   5.6587, s =  0.3447, 
                 spin up      =   5.6587, p =  0.3841, pz=  0.0880, px=  0.1535, py=  0.1426, 
                 spin up      =   5.6587, d =  4.9299, dz2=  0.9841, dxz=  0.9871, dyz=  0.9827, dx2-y2=  0.9883, dxy=  0.9877, 
                 spin down    =   5.4095, s =  0.2470, 
                 spin down    =   5.4095, p =  0.2427, pz=  0.0652, px=  0.0907, py=  0.0868, 
                 spin down    =   5.4095, d =  4.9198, dz2=  0.9824, dxz=  0.9846, dyz=  0.9815, dx2-y2=  0.9858, dxy=  0.9854, 
                 polarization =   0.2492, s =  0.0977, p =  0.1414, d =  0.0101, 
     Atom #   5: total charge =  11.0682, s =  0.5916, p =  0.6268, d =  9.8497, 
                 spin up      =   5.6587, s =  0.3447, 
                 spin up      =   5.6587, p =  0.3840, pz=  0.0935, px=  0.1386, py=  0.1519, 
                 spin up      =   5.6587, d =  4.9299, dz2=  0.9857, dxz=  0.9817, dyz=  0.9866, dx2-y2=  0.9884, dxy=  0.9875, 
                 spin down    =   5.4095, s =  0.2469, 
                 spin down    =   5.4095, p =  0.2427, pz=  0.0674, px=  0.0849, py=  0.0905, 
                 spin down    =   5.4095, d =  4.9198, dz2=  0.9836, dxz=  0.9808, dyz=  0.9843, dx2-y2=  0.9859, dxy=  0.9852, 
                 polarization =   0.2492, s =  0.0978, p =  0.1413, d =  0.0101, 
     Atom #   6: total charge =  11.0683, s =  0.5913, p =  0.6273, d =  9.8497, 
                 spin up      =   5.6586, s =  0.3447, 
                 spin up      =   5.6586, p =  0.3841, pz=  0.1449, px=  0.1194, py=  0.1198, 
                 spin up      =   5.6586, d =  4.9299, dz2=  0.9880, dxz=  0.9856, dyz=  0.9856, dx2-y2=  0.9903, dxy=  0.9803, 
                 spin down    =   5.4097, s =  0.2467, 
                 spin down    =   5.4097, p =  0.2432, pz=  0.0878, px=  0.0779, py=  0.0775, 
                 spin down    =   5.4097, d =  4.9198, dz2=  0.9855, dxz=  0.9837, dyz=  0.9838, dx2-y2=  0.9869, dxy=  0.9799, 
                 polarization =   0.2489, s =  0.0980, p =  0.1408, d =  0.0101, 
     Atom #   7: total charge =  11.0683, s =  0.5918, p =  0.6267, d =  9.8497, 
                 spin up      =   5.6587, s =  0.3447, 
                 spin up      =   5.6587, p =  0.3841, pz=  0.1208, px=  0.1339, py=  0.1294, 
                 spin up      =   5.6587, d =  4.9299, dz2=  0.9898, dxz=  0.9835, dyz=  0.9826, dx2-y2=  0.9895, dxy=  0.9845, 
                 spin down    =   5.4096, s =  0.2471, 
                 spin down    =   5.4096, p =  0.2427, pz=  0.0780, px=  0.0835, py=  0.0811, 
                 spin down    =   5.4096, d =  4.9198, dz2=  0.9866, dxz=  0.9822, dyz=  0.9815, dx2-y2=  0.9865, dxy=  0.9830, 
                 polarization =   0.2492, s =  0.0976, p =  0.1414, d =  0.0101, 
     Atom #   8: total charge =  13.9140, s =  1.5049, p =  2.4234, d =  9.9856, 
                 spin up      =   6.9378, s =  0.7500, 
                 spin up      =   6.9378, p =  1.1938, pz=  0.3979, px=  0.3979, py=  0.3979, 
                 spin up      =   6.9378, d =  4.9940, dz2=  0.9988, dxz=  0.9988, dyz=  0.9988, dx2-y2=  0.9988, dxy=  0.9988, 
                 spin down    =   6.9761, s =  0.7549, 
                 spin down    =   6.9761, p =  1.2296, pz=  0.4099, px=  0.4099, py=  0.4099, 
                 spin down    =   6.9761, d =  4.9916, dz2=  0.9983, dxz=  0.9983, dyz=  0.9983, dx2-y2=  0.9983, dxy=  0.9983, 
                 polarization =  -0.0383, s = -0.0048, p = -0.0359, d =  0.0024, 
     Atom #   9: total charge =  11.0683, s =  0.5915, p =  0.6271, d =  9.8497, 
                 spin up      =   5.6587, s =  0.3447, 
                 spin up      =   5.6587, p =  0.3841, pz=  0.1609, px=  0.1550, py=  0.0682, 
                 spin up      =   5.6587, d =  4.9299, dz2=  0.9840, dxz=  0.9879, dyz=  0.9905, dx2-y2=  0.9799, dxy=  0.9876, 
                 spin down    =   5.4096, s =  0.2468, 
                 spin down    =   5.4096, p =  0.2430, pz=  0.0943, px=  0.0913, py=  0.0573, 
                 spin down    =   5.4096, d =  4.9198, dz2=  0.9828, dxz=  0.9856, dyz=  0.9870, dx2-y2=  0.9795, dxy=  0.9849, 
                 polarization =   0.2492, s =  0.0979, p =  0.1411, d =  0.0101, 
     Atom #  10: total charge =  11.0683, s =  0.5918, p =  0.6268, d =  9.8497, 
                 spin up      =   5.6588, s =  0.3447, 
                 spin up      =   5.6588, p =  0.3841, pz=  0.1209, px=  0.1339, py=  0.1294, 
                 spin up      =   5.6588, d =  4.9299, dz2=  0.9898, dxz=  0.9835, dyz=  0.9826, dx2-y2=  0.9895, dxy=  0.9845, 
                 spin down    =   5.4095, s =  0.2471, 
                 spin down    =   5.4095, p =  0.2427, pz=  0.0781, px=  0.0836, py=  0.0811, 
                 spin down    =   5.4095, d =  4.9198, dz2=  0.9866, dxz=  0.9822, dyz=  0.9815, dx2-y2=  0.9865, dxy=  0.9830, 
                 polarization =   0.2492, s =  0.0976, p =  0.1414, d =  0.0101, 
     Atom #  11: total charge =  11.0682, s =  0.5916, p =  0.6269, d =  9.8497, 
                 spin up      =   5.6587, s =  0.3447, 
                 spin up      =   5.6587, p =  0.3841, pz=  0.1601, px=  0.0678, py=  0.1562, 
                 spin up      =   5.6587, d =  4.9299, dz2=  0.9843, dxz=  0.9902, dyz=  0.9878, dx2-y2=  0.9794, dxy=  0.9882, 
                 spin down    =   5.4095, s =  0.2469, 
                 spin down    =   5.4095, p =  0.2428, pz=  0.0929, px=  0.0573, py=  0.0925, 
                 spin down    =   5.4095, d =  4.9198, dz2=  0.9829, dxz=  0.9867, dyz=  0.9856, dx2-y2=  0.9792, dxy=  0.9854, 
                 polarization =   0.2492, s =  0.0978, p =  0.1413, d =  0.0101, 
     Atom #  12: total charge =  11.0682, s =  0.5917, p =  0.6267, d =  9.8497, 
                 spin up      =   5.6587, s =  0.3447, 
                 spin up      =   5.6587, p =  0.3840, pz=  0.0880, px=  0.1535, py=  0.1425, 
                 spin up      =   5.6587, d =  4.9299, dz2=  0.9841, dxz=  0.9871, dyz=  0.9827, dx2-y2=  0.9883, dxy=  0.9877, 
                 spin down    =   5.4095, s =  0.2470, 
                 spin down    =   5.4095, p =  0.2427, pz=  0.0652, px=  0.0907, py=  0.0868, 
                 spin down    =   5.4095, d =  4.9198, dz2=  0.9824, dxz=  0.9846, dyz=  0.9815, dx2-y2=  0.9858, dxy=  0.9854, 
                 polarization =   0.2491, s =  0.0977, p =  0.1413, d =  0.0101, 
     Atom #  13: total charge =  11.0683, s =  0.5915, p =  0.6271, d =  9.8497, 
                 spin up      =   5.6587, s =  0.3447, 
                 spin up      =   5.6587, p =  0.3841, pz=  0.1608, px=  0.1550, py=  0.0682, 
                 spin up      =   5.6587, d =  4.9299, dz2=  0.9840, dxz=  0.9879, dyz=  0.9906, dx2-y2=  0.9798, dxy=  0.9876, 
                 spin down    =   5.4095, s =  0.2468, 
                 spin down    =   5.4095, p =  0.2430, pz=  0.0943, px=  0.0913, py=  0.0573, 
                 spin down    =   5.4095, d =  4.9198, dz2=  0.9828, dxz=  0.9856, dyz=  0.9870, dx2-y2=  0.9795, dxy=  0.9849, 
                 polarization =   0.2492, s =  0.0979, p =  0.1411, d =  0.0101, 
     Spilling Parameter:   0.0018
 
     PROJWFC      :   1m 1.25s CPU   1m 7.78s WALL

 
   This run was terminated on:  14:16:21   2Apr2021            

=------------------------------------------------------------------------------=
   JOB DONE.
=------------------------------------------------------------------------------=
