
     Program PWSCF v.6.5 starts on  2Apr2021 at 13:17:29 

     This program is part of the open-source Quantum ESPRESSO suite
     for quantum simulation of materials; please cite
         "P. Giannozzi et al., J. Phys.:Condens. Matter 21 395502 (2009);
         "P. Giannozzi et al., J. Phys.:Condens. Matter 29 465901 (2017);
          URL http://www.quantum-espresso.org", 
     in publications or presentations arising from this work. More details at
     http://www.quantum-espresso.org/quote

     Parallel version (MPI & OpenMP), running on      24 processor cores
     Number of MPI processes:                24
     Threads/MPI process:                     1

     MPI processes distributed on     1 nodes
     R & G space division:  proc/nbgrp/npool/nimage =      24
     Waiting for input...
     Reading input from standard input

     Current dimensions of program PWSCF are:
     Max number of different atomic species (ntypx) = 10
     Max number of k-points (npk) =  40000
     Max angular momentum in pseudopotentials (lmaxx) =  3

     Atomic positions and unit cell read from directory:
     ./tmp/ag12Bic.save/                                                                                                                                                                                                                                             
 
               file Ag.pbe-dn-kjpaw_psl.0.1.UPF: wavefunction(s)  5S 5P 4D renormalized
               file Bi.pbe-dn-kjpaw_psl.1.0.0.UPF: wavefunction(s)  6P 5D renormalized

     gamma-point specific algorithms are used

     Subspace diagonalization in iterative solution of the eigenvalue problem:
     one sub-group per band group will be used
     scalapack distributed-memory algorithm (size of sub-group:  4*  4 procs)

 
     Parallelization info
     --------------------
     sticks:   dense  smooth     PW     G-vecs:    dense   smooth      PW
     Min        2516    2148    535               465600   367032   45855
     Max        2518    2150    538               465610   367046   45862
     Sum       60425   51577  12893             11174549  8808945 1100629
 


     bravais-lattice index     =            1
     lattice parameter (alat)  =      45.0000  a.u.
     unit-cell volume          =   91125.0000 (a.u.)^3
     number of atoms/cell      =           13
     number of atomic types    =            2
     number of electrons       =       147.00
     number of Kohn-Sham states=           89
     kinetic-energy cutoff     =      80.0000  Ry
     charge density cutoff     =     375.0000  Ry
     Exchange-correlation= SLA PW PBX PBC
                           (   1   4   3   4   0   0   0)

     celldm(1)=  45.000000  celldm(2)=   0.000000  celldm(3)=   0.000000
     celldm(4)=   0.000000  celldm(5)=   0.000000  celldm(6)=   0.000000

     crystal axes: (cart. coord. in units of alat)
               a(1) = (   1.000000   0.000000   0.000000 )  
               a(2) = (   0.000000   1.000000   0.000000 )  
               a(3) = (   0.000000   0.000000   1.000000 )  

     reciprocal axes: (cart. coord. in units 2 pi/alat)
               b(1) = (  1.000000  0.000000  0.000000 )  
               b(2) = (  0.000000  1.000000  0.000000 )  
               b(3) = (  0.000000  0.000000  1.000000 )  


     PseudoPot. # 1 for Ag read from file:
     ../../pseudo/Ag.pbe-dn-kjpaw_psl.0.1.UPF
     MD5 check sum: 2edc915f30f03476250949c796a6a376
     Pseudo is Projector augmented-wave + core cor, Zval = 11.0
     Generated using "atomic" code by A. Dal Corso v.5.0.2 svn rev. 9415
     Shape of augmentation charge: PSQ
     Using radial grid of 1237 points,  6 beta functions with: 
                l(1) =   0
                l(2) =   0
                l(3) =   1
                l(4) =   1
                l(5) =   2
                l(6) =   2
     Q(r) pseudized with 0 coefficients 


     PseudoPot. # 2 for Bi read from file:
     ../../pseudo/Bi.pbe-dn-kjpaw_psl.1.0.0.UPF
     MD5 check sum: 266ded784ae3bc462508ed03f0f37963
     Pseudo is Projector augmented-wave + core cor, Zval = 15.0
     Generated using "atomic" code by A. Dal Corso v.6.2.2
     Shape of augmentation charge: PSQ
     Using radial grid of 1283 points,  6 beta functions with: 
                l(1) =   0
                l(2) =   0
                l(3) =   1
                l(4) =   1
                l(5) =   2
                l(6) =   2
     Q(r) pseudized with 0 coefficients 


     atomic species   valence    mass     pseudopotential
        Ag            11.00   107.87000     Ag( 1.00)
        Bi            15.00   208.98000     Bi( 1.00)

     Starting magnetic structure 
     atomic species   magnetization
        Ag           0.500
        Bi           0.500

     No symmetry found


                                    s                        frac. trans.

      isym =  1     identity                                     

 cryst.   s( 1) = (     1          0          0      )
                  (     0          1          0      )
                  (     0          0          1      )

 cart.    s( 1) = (  1.0000000  0.0000000  0.0000000 )
                  (  0.0000000  1.0000000  0.0000000 )
                  (  0.0000000  0.0000000  1.0000000 )


     point group C_1 (1)    
     there are  1 classes
     the character table:

       E    
A      1.00

     the symmetry operations in each class and the name of the first element:

     E        1
          identity                                               

   Cartesian axes

     site n.     atom                  positions (alat units)
         1           Ag  tau(   1) = (   0.2745615   0.2723785   0.3686153  )
         2           Ag  tau(   2) = (   0.2953521   0.3870207   0.4195971  )
         3           Ag  tau(   3) = (   0.4703547   0.3238627   0.3317097  )
         4           Ag  tau(   4) = (   0.3862533   0.2981839   0.4236197  )
         5           Ag  tau(   5) = (   0.4105983   0.3138710   0.2198841  )
         6           Ag  tau(   6) = (   0.4313935   0.4285091   0.2709028  )
         7           Ag  tau(   7) = (   0.2895968   0.2820449   0.2426932  )
         8           Bi  tau(   8) = (   0.3529681   0.3504435   0.3197318  )
         9           Ag  tau(   9) = (   0.3231771   0.4675403   0.3251952  )
        10           Ag  tau(  10) = (   0.4163290   0.4188484   0.3967870  )
        11           Ag  tau(  11) = (   0.2355766   0.3770117   0.3077603  )
        12           Ag  tau(  12) = (   0.3196745   0.4027041   0.2158604  )
        13           Ag  tau(  13) = (   0.3827369   0.2333359   0.3143154  )

   Crystallographic axes

     site n.     atom                  positions (cryst. coord.)
         1           Ag  tau(   1) = (  0.2745615  0.2723785  0.3686153  )
         2           Ag  tau(   2) = (  0.2953521  0.3870207  0.4195971  )
         3           Ag  tau(   3) = (  0.4703547  0.3238627  0.3317097  )
         4           Ag  tau(   4) = (  0.3862533  0.2981839  0.4236197  )
         5           Ag  tau(   5) = (  0.4105983  0.3138710  0.2198841  )
         6           Ag  tau(   6) = (  0.4313935  0.4285091  0.2709028  )
         7           Ag  tau(   7) = (  0.2895968  0.2820449  0.2426932  )
         8           Bi  tau(   8) = (  0.3529681  0.3504435  0.3197318  )
         9           Ag  tau(   9) = (  0.3231771  0.4675403  0.3251952  )
        10           Ag  tau(  10) = (  0.4163290  0.4188484  0.3967870  )
        11           Ag  tau(  11) = (  0.2355766  0.3770117  0.3077603  )
        12           Ag  tau(  12) = (  0.3196745  0.4027041  0.2158604  )
        13           Ag  tau(  13) = (  0.3827369  0.2333359  0.3143154  )

     number of k points=     1  Fermi-Dirac smearing, width (Ry)=  0.0020
                       cart. coord. in units 2pi/alat
        k(    1) = (   0.0000000   0.0000000   0.0000000), wk =   1.0000000

                       cryst. coord.
        k(    1) = (   0.0000000   0.0000000   0.0000000), wk =   1.0000000

     Dense  grid:  5587275 G-vectors     FFT dimensions: ( 288, 288, 288)

     Smooth grid:  4404473 G-vectors     FFT dimensions: ( 270, 270, 270)

     Dynamical RAM for                 wfc:      31.15 MB

     Dynamical RAM for     wfc (w. buffer):      31.15 MB

     Dynamical RAM for           str. fact:       7.10 MB

     Dynamical RAM for           local pot:       0.00 MB

     Dynamical RAM for          nlocal pot:      81.90 MB

     Dynamical RAM for                qrad:      22.23 MB

     Dynamical RAM for          rho,v,vnew:      66.88 MB

     Dynamical RAM for           G-vectors:      14.72 MB

     Dynamical RAM for          h,s,v(r/c):       0.18 MB

     Dynamical RAM for          <psi|beta>:       0.16 MB

     Dynamical RAM for                 psi:     124.61 MB

     Dynamical RAM for                hpsi:     124.61 MB

     Dynamical RAM for                spsi:     124.61 MB

     Dynamical RAM for      wfcinit/wfcrot:      82.22 MB

     Dynamical RAM for           addusdens:     706.91 MB

     Estimated static dynamical RAM per process >     280.21 MB

     Estimated max dynamical RAM per process >     987.11 MB

     Estimated total dynamical RAM >      23.14 GB
     Generating pointlists ...
     new r_m :   0.0499 (alat units)  2.2451 (a.u.) for type    1
     new r_m :   0.0499 (alat units)  2.2451 (a.u.) for type    2

     Check: negative core charge=   -0.000001

     The potential is recalculated from file :
     ./tmp/ag12Bic.save/charge-density

     Starting wfcs are  117 randomized atomic wfcs
     Checking if some PAW data can be deallocated... 
       PAW data deallocated on    2 nodes for type:  1
       PAW data deallocated on   22 nodes for type:  2

     Band Structure Calculation
     Davidson diagonalization with overlap

     Computing kpt #:     1  of     2
     c_bands:  3 eigenvalues not converged
     total cpu time spent up to now is      734.9 secs

     Computing kpt #:     2  of     2
     c_bands:  3 eigenvalues not converged
     total cpu time spent up to now is     1429.3 secs

     ethr =  6.80E-12,  avg # of iterations =120.0

     total cpu time spent up to now is     1429.3 secs

     End of band structure calculation

 ------ SPIN UP ------------


          k = 0.0000 0.0000 0.0000 (550315 PWs)   bands (ev):

   -27.5828 -27.5828 -27.5828 -27.5828 -27.5827 -16.3249  -9.8603  -9.8602
    -9.8601  -8.5840  -8.5838  -8.5838  -8.5837  -8.5836  -8.5621  -8.5621
    -8.5620  -8.5619  -8.3759  -8.3758  -8.3758  -8.3033  -8.2761  -8.2760
    -8.2758  -8.2758  -8.0754  -8.0753  -8.0752  -7.9506  -7.9504  -7.9503
    -7.9499  -7.9499  -7.7462  -7.7461  -7.7458  -7.7455  -7.7453  -7.5978
    -7.5977  -7.5974  -7.5971  -7.5970  -7.5758  -7.5758  -7.5757  -7.3911
    -7.3911  -7.3910  -7.3909  -7.2576  -7.2576  -7.2574  -7.2573  -7.2572
    -7.1740  -7.1739  -7.1738  -7.1671  -7.1669  -7.1666  -7.1664  -6.9686
    -6.9684  -6.9684  -6.5345  -6.5344  -6.5344  -5.8338  -4.1295  -4.1293
    -4.1289  -4.1288  -4.1285  -2.9124  -2.9123  -2.9122  -1.9939  -1.9938
    -1.9937  -1.5133  -1.5133  -1.5132  -1.5131  -0.8743  -0.2517  -0.2509
    -0.2393

     occupation numbers 
     1.0000   1.0000   1.0000   1.0000   1.0000   1.0000   1.0000   1.0000
     1.0000   1.0000   1.0000   1.0000   1.0000   1.0000   1.0000   1.0000
     1.0000   1.0000   1.0000   1.0000   1.0000   1.0000   1.0000   1.0000
     1.0000   1.0000   1.0000   1.0000   1.0000   1.0000   1.0000   1.0000
     1.0000   1.0000   1.0000   1.0000   1.0000   1.0000   1.0000   1.0000
     1.0000   1.0000   1.0000   1.0000   1.0000   1.0000   1.0000   1.0000
     1.0000   1.0000   1.0000   1.0000   1.0000   1.0000   1.0000   1.0000
     1.0000   1.0000   1.0000   1.0000   1.0000   1.0000   1.0000   1.0000
     1.0000   1.0000   1.0000   1.0000   1.0000   1.0000   0.9997   0.9997
     0.9997   0.9997   0.9997   0.0000   0.0000   0.0000   0.0000   0.0000
     0.0000   0.0000   0.0000   0.0000   0.0000   0.0000   0.0000   0.0000
     0.0000

 ------ SPIN DOWN ----------


          k = 0.0000 0.0000 0.0000 (550315 PWs)   bands (ev):

   -27.5829 -27.5829 -27.5829 -27.5829 -27.5829 -16.3117  -9.7921  -9.7920
    -9.7918  -8.5135  -8.5134  -8.5133  -8.5133  -8.5131  -8.4971  -8.4969
    -8.4968  -8.4966  -8.2904  -8.2904  -8.2904  -8.2027  -8.2025  -8.2023
    -8.2023  -8.1768  -7.9880  -7.9880  -7.9878  -7.8839  -7.8837  -7.8835
    -7.8831  -7.8830  -7.6859  -7.6857  -7.6853  -7.6850  -7.6847  -7.5499
    -7.5498  -7.5495  -7.5491  -7.5490  -7.5352  -7.5351  -7.5350  -7.3292
    -7.3291  -7.3290  -7.3289  -7.1998  -7.1997  -7.1997  -7.1995  -7.1995
    -7.1199  -7.1198  -7.1198  -7.1076  -7.1074  -7.1072  -7.1071  -6.9199
    -6.9197  -6.9197  -6.4099  -6.4097  -6.4096  -5.6833  -3.8988  -3.8983
    -3.8979  -3.8974  -3.8970  -2.7605  -2.7605  -2.7604  -1.7898  -1.7898
    -1.7896  -1.2527  -1.2520  -1.2515  -1.2510  -0.7392  -0.1855  -0.1130
    -0.1124

     occupation numbers 
     1.0000   1.0000   1.0000   1.0000   1.0000   1.0000   1.0000   1.0000
     1.0000   1.0000   1.0000   1.0000   1.0000   1.0000   1.0000   1.0000
     1.0000   1.0000   1.0000   1.0000   1.0000   1.0000   1.0000   1.0000
     1.0000   1.0000   1.0000   1.0000   1.0000   1.0000   1.0000   1.0000
     1.0000   1.0000   1.0000   1.0000   1.0000   1.0000   1.0000   1.0000
     1.0000   1.0000   1.0000   1.0000   1.0000   1.0000   1.0000   1.0000
     1.0000   1.0000   1.0000   1.0000   1.0000   1.0000   1.0000   1.0000
     1.0000   1.0000   1.0000   1.0000   1.0000   1.0000   1.0000   1.0000
     1.0000   1.0000   1.0000   1.0000   1.0000   1.0000   0.4082   0.4042
     0.4006   0.3963   0.3922   0.0000   0.0000   0.0000   0.0000   0.0000
     0.0000   0.0000   0.0000   0.0000   0.0000   0.0000   0.0000   0.0000
     0.0000

     the Fermi energy is    -3.9089 ev

     Writing output data file ./tmp/ag12Bic.save/
 
     init_run     :     42.18s CPU     44.76s WALL (       1 calls)
     electrons    :   1369.66s CPU   1380.21s WALL (       1 calls)

     Called by init_run:
     wfcinit      :      0.00s CPU      0.01s WALL (       1 calls)
     wfcinit:atom :      0.39s CPU      0.49s WALL (       2 calls)
     wfcinit:wfcr :     46.16s CPU     46.56s WALL (       2 calls)
     potinit      :     10.47s CPU     11.30s WALL (       1 calls)
     hinit0       :      4.75s CPU      4.93s WALL (       1 calls)

     Called by electrons:
     c_bands      :   1369.66s CPU   1380.20s WALL (       1 calls)
     v_of_rho     :      6.93s CPU      7.28s WALL (       1 calls)
     v_h          :      0.50s CPU      0.50s WALL (       1 calls)
     v_xc         :      6.43s CPU      6.77s WALL (       1 calls)
     newd         :     13.55s CPU     14.89s WALL (       1 calls)
     PAW_pot      :      1.28s CPU      1.32s WALL (       1 calls)

     Called by c_bands:
     init_us_2    :      0.29s CPU      0.41s WALL (       2 calls)
     regterg      :   1319.94s CPU   1329.69s WALL (      12 calls)

     Called by sum_band:

     Called by *egterg:
     h_psi        :    959.49s CPU    965.09s WALL (     254 calls)
     s_psi        :     81.12s CPU     81.33s WALL (     254 calls)
     g_psi        :      2.98s CPU      3.00s WALL (     240 calls)
     rdiaghg      :      8.41s CPU      9.02s WALL (     242 calls)
     regterg:over :    140.32s CPU    140.77s WALL (     240 calls)
     regterg:upda :    118.73s CPU    120.18s WALL (     240 calls)
     regterg:last :     32.26s CPU     32.35s WALL (      20 calls)
     rdiaghg:chol :      0.29s CPU      0.30s WALL (     242 calls)
     rdiaghg:inve :      0.24s CPU      0.25s WALL (     242 calls)
     rdiaghg:para :      0.84s CPU      0.85s WALL (     484 calls)

     Called by h_psi:
     h_psi:calbec :     77.78s CPU     78.02s WALL (     254 calls)
     vloc_psi     :    793.67s CPU    798.56s WALL (     254 calls)
     add_vuspsi   :     83.43s CPU     83.88s WALL (     254 calls)

     General routines
     calbec       :     77.78s CPU     78.01s WALL (     254 calls)
     fft          :      6.70s CPU      6.92s WALL (      18 calls)
     ffts         :      0.58s CPU      0.62s WALL (       2 calls)
     fftw         :    655.10s CPU    659.33s WALL (    5270 calls)
     interpolate  :      1.49s CPU      1.56s WALL (       2 calls)
     davcio       :      0.00s CPU      0.29s WALL (       4 calls)
 
     Parallel routines
     fft_scatt_xy :    105.42s CPU    106.28s WALL (    5290 calls)
     fft_scatt_yz :    162.34s CPU    163.46s WALL (    5290 calls)

     PAW routines
     PAW_pot      :      1.28s CPU      1.32s WALL (       1 calls)
 
     PWSCF        :  23m37.39s CPU  23m54.77s WALL

 
   This run was terminated on:  13:41:24   2Apr2021            

=------------------------------------------------------------------------------=
   JOB DONE.
=------------------------------------------------------------------------------=
