
     Program PWSCF v.6.5 starts on  5Jun2020 at  2:39:10 

     This program is part of the open-source Quantum ESPRESSO suite
     for quantum simulation of materials; please cite
         "P. Giannozzi et al., J. Phys.:Condens. Matter 21 395502 (2009);
         "P. Giannozzi et al., J. Phys.:Condens. Matter 29 465901 (2017);
          URL http://www.quantum-espresso.org", 
     in publications or presentations arising from this work. More details at
     http://www.quantum-espresso.org/quote

     Parallel version (MPI & OpenMP), running on      24 processor cores
     Number of MPI processes:                24
     Threads/MPI process:                     1

     MPI processes distributed on     1 nodes
     R & G space division:  proc/nbgrp/npool/nimage =      24
     Waiting for input...
     Reading input from standard input

     Current dimensions of program PWSCF are:
     Max number of different atomic species (ntypx) = 10
     Max number of k-points (npk) =  40000
     Max angular momentum in pseudopotentials (lmaxx) =  3
               file Ag.pbe-dn-kjpaw_psl.0.1.UPF: wavefunction(s)  5S 5P 4D renormalized

     gamma-point specific algorithms are used

     Subspace diagonalization in iterative solution of the eigenvalue problem:
     one sub-group per band group will be used
     scalapack distributed-memory algorithm (size of sub-group:  4*  4 procs)

 
     Parallelization info
     --------------------
     sticks:   dense  smooth     PW     G-vecs:    dense   smooth      PW
     Min         800     618    153                83352    56966    7114
     Max         802     621    156                83364    56984    7128
     Sum       19205   14873   3721              2000617  1367449  170901
 


     bravais-lattice index     =            1
     lattice parameter (alat)  =      30.0000  a.u.
     unit-cell volume          =   27000.0000 (a.u.)^3
     number of atoms/cell      =           13
     number of atomic types    =            1
     number of electrons       =       143.00
     number of Kohn-Sham states=           86
     kinetic-energy cutoff     =      52.0000  Ry
     charge density cutoff     =     268.0000  Ry
     convergence threshold     =      1.0E-08
     mixing beta               =       0.7000
     number of iterations used =            8  local-TF  mixing
     Exchange-correlation= SLA PW PBX PBC
                           (   1   4   3   4   0   0   0)

     celldm(1)=  30.000000  celldm(2)=   0.000000  celldm(3)=   0.000000
     celldm(4)=   0.000000  celldm(5)=   0.000000  celldm(6)=   0.000000

     crystal axes: (cart. coord. in units of alat)
               a(1) = (   1.000000   0.000000   0.000000 )  
               a(2) = (   0.000000   1.000000   0.000000 )  
               a(3) = (   0.000000   0.000000   1.000000 )  

     reciprocal axes: (cart. coord. in units 2 pi/alat)
               b(1) = (  1.000000  0.000000  0.000000 )  
               b(2) = (  0.000000  1.000000  0.000000 )  
               b(3) = (  0.000000  0.000000  1.000000 )  


     PseudoPot. # 1 for Ag read from file:
     ../../pseudo/Ag.pbe-dn-kjpaw_psl.0.1.UPF
     MD5 check sum: 2edc915f30f03476250949c796a6a376
     Pseudo is Projector augmented-wave + core cor, Zval = 11.0
     Generated using "atomic" code by A. Dal Corso v.5.0.2 svn rev. 9415
     Shape of augmentation charge: PSQ
     Using radial grid of 1237 points,  6 beta functions with: 
                l(1) =   0
                l(2) =   0
                l(3) =   1
                l(4) =   1
                l(5) =   2
                l(6) =   2
     Q(r) pseudized with 0 coefficients 


     atomic species   valence    mass     pseudopotential
        Ag            11.00   107.87000     Ag( 1.00)

     Starting magnetic structure 
     atomic species   magnetization
        Ag           0.700

     No symmetry found


                                    s                        frac. trans.

      isym =  1     identity                                     

 cryst.   s( 1) = (     1          0          0      )
                  (     0          1          0      )
                  (     0          0          1      )

 cart.    s( 1) = (  1.0000000  0.0000000  0.0000000 )
                  (  0.0000000  1.0000000  0.0000000 )
                  (  0.0000000  0.0000000  1.0000000 )


     point group C_1 (1)    
     there are  1 classes
     the character table:

       E    
A      1.00

     the symmetry operations in each class and the name of the first element:

     E        1
          identity                                               

   Cartesian axes

     site n.     atom                  positions (alat units)
         1           Ag  tau(   1) = (   0.1491734   0.1458890   0.2837596  )
         2           Ag  tau(   2) = (   0.1792846   0.3119907   0.3576786  )
         3           Ag  tau(   3) = (   0.4329009   0.2204880   0.2303197  )
         4           Ag  tau(   4) = (   0.3110329   0.1832594   0.3634954  )
         5           Ag  tau(   5) = (   0.3462969   0.2059790   0.0682615  )
         6           Ag  tau(   6) = (   0.3764058   0.3721183   0.1421461  )
         7           Ag  tau(   7) = (   0.1710023   0.1598862   0.1012802  )
         8           Ag  tau(   8) = (   0.2627924   0.2590014   0.2129455  )
         9           Ag  tau(   9) = (   0.2195907   0.4286912   0.2208285  )
        10           Ag  tau(  10) = (   0.3545741   0.3581333   0.3245700  )
        11           Ag  tau(  11) = (   0.0926946   0.2974737   0.1955799  )
        12           Ag  tau(  12) = (   0.2145339   0.3347544   0.0624028  )
        13           Ag  tau(  13) = (   0.3059095   0.0893008   0.2050735  )

   Crystallographic axes

     site n.     atom                  positions (cryst. coord.)
         1           Ag  tau(   1) = (  0.1491734  0.1458890  0.2837596  )
         2           Ag  tau(   2) = (  0.1792846  0.3119907  0.3576786  )
         3           Ag  tau(   3) = (  0.4329009  0.2204880  0.2303197  )
         4           Ag  tau(   4) = (  0.3110329  0.1832594  0.3634954  )
         5           Ag  tau(   5) = (  0.3462969  0.2059790  0.0682615  )
         6           Ag  tau(   6) = (  0.3764058  0.3721183  0.1421461  )
         7           Ag  tau(   7) = (  0.1710023  0.1598862  0.1012802  )
         8           Ag  tau(   8) = (  0.2627924  0.2590014  0.2129455  )
         9           Ag  tau(   9) = (  0.2195907  0.4286912  0.2208285  )
        10           Ag  tau(  10) = (  0.3545741  0.3581333  0.3245700  )
        11           Ag  tau(  11) = (  0.0926946  0.2974737  0.1955799  )
        12           Ag  tau(  12) = (  0.2145339  0.3347544  0.0624028  )
        13           Ag  tau(  13) = (  0.3059095  0.0893008  0.2050735  )

     number of k points=     1  Fermi-Dirac smearing, width (Ry)=  0.0007
                       cart. coord. in units 2pi/alat
        k(    1) = (   0.0000000   0.0000000   0.0000000), wk =   1.0000000

                       cryst. coord.
        k(    1) = (   0.0000000   0.0000000   0.0000000), wk =   1.0000000

     Dense  grid:  1000309 G-vectors     FFT dimensions: ( 160, 160, 160)

     Smooth grid:   683725 G-vectors     FFT dimensions: ( 144, 144, 144)

     Dynamical RAM for                 wfc:       4.67 MB

     Dynamical RAM for     wfc (w. buffer):      14.02 MB

     Dynamical RAM for           str. fact:       0.64 MB

     Dynamical RAM for           local pot:       0.00 MB

     Dynamical RAM for          nlocal pot:      12.71 MB

     Dynamical RAM for                qrad:       6.26 MB

     Dynamical RAM for          rho,v,vnew:      12.02 MB

     Dynamical RAM for               rhoin:       4.01 MB

     Dynamical RAM for            rho*nmix:      20.35 MB

     Dynamical RAM for           G-vectors:       2.60 MB

     Dynamical RAM for          h,s,v(r/c):       0.17 MB

     Dynamical RAM for          <psi|beta>:       0.15 MB

     Dynamical RAM for                 psi:      18.69 MB

     Dynamical RAM for                hpsi:      18.69 MB

     Dynamical RAM for                spsi:      18.69 MB

     Dynamical RAM for      wfcinit/wfcrot:      13.03 MB

     Dynamical RAM for           addusdens:     127.20 MB

     Estimated static dynamical RAM per process >      82.09 MB

     Estimated max dynamical RAM per process >     209.29 MB

     Estimated total dynamical RAM >       4.91 GB
     Generating pointlists ...
     new r_m :   0.0723 (alat units)  2.1687 (a.u.) for type    1

     Check: negative core charge=   -0.000006

     Initial potential from superposition of free atoms

     starting charge  142.99482, renormalised to  143.00000
     Starting wfcs are  117 randomized atomic wfcs
     Checking if some PAW data can be deallocated... 

     total cpu time spent up to now is       15.7 secs

     Self-consistent Calculation

     iteration #  1     ecut=    52.00 Ry     beta= 0.70
     Davidson diagonalization with overlap
     ethr =  1.00E-02,  avg # of iterations =  3.0

     total cpu time spent up to now is       40.0 secs

     total energy              =   -4617.26378327 Ry
     Harris-Foulkes estimate   =   -4610.33829142 Ry
     estimated scf accuracy    <       7.33662934 Ry

     total magnetization       =     5.00 Bohr mag/cell
     absolute magnetization    =     5.00 Bohr mag/cell

     iteration #  2     ecut=    52.00 Ry     beta= 0.70
     Davidson diagonalization with overlap
     ethr =  5.13E-03,  avg # of iterations =  1.0

     total cpu time spent up to now is       62.7 secs

     total energy              =   -4618.00348928 Ry
     Harris-Foulkes estimate   =   -4617.36755338 Ry
     estimated scf accuracy    <       0.96095576 Ry

     total magnetization       =     5.00 Bohr mag/cell
     absolute magnetization    =     5.01 Bohr mag/cell

     iteration #  3     ecut=    52.00 Ry     beta= 0.70
     Davidson diagonalization with overlap
     ethr =  6.72E-04,  avg # of iterations =  2.5

     total cpu time spent up to now is       86.8 secs

     total energy              =   -4618.06277998 Ry
     Harris-Foulkes estimate   =   -4618.07521649 Ry
     estimated scf accuracy    <       0.07952749 Ry

     total magnetization       =     5.00 Bohr mag/cell
     absolute magnetization    =     5.04 Bohr mag/cell

     iteration #  4     ecut=    52.00 Ry     beta= 0.70
     Davidson diagonalization with overlap
     ethr =  5.56E-05,  avg # of iterations = 15.0

     total cpu time spent up to now is      121.1 secs

     total energy              =   -4618.07698368 Ry
     Harris-Foulkes estimate   =   -4618.08368750 Ry
     estimated scf accuracy    <       0.03352224 Ry

     total magnetization       =     5.00 Bohr mag/cell
     absolute magnetization    =     5.12 Bohr mag/cell

     iteration #  5     ecut=    52.00 Ry     beta= 0.70
     Davidson diagonalization with overlap
     ethr =  2.34E-05,  avg # of iterations =  2.0

     total cpu time spent up to now is      144.4 secs

     total energy              =   -4618.07382453 Ry
     Harris-Foulkes estimate   =   -4618.07881398 Ry
     estimated scf accuracy    <       0.01790802 Ry

     total magnetization       =     5.00 Bohr mag/cell
     absolute magnetization    =     5.18 Bohr mag/cell

     iteration #  6     ecut=    52.00 Ry     beta= 0.70
     Davidson diagonalization with overlap
     ethr =  1.25E-05,  avg # of iterations =  4.0

     total cpu time spent up to now is      169.0 secs

     total energy              =   -4618.07425492 Ry
     Harris-Foulkes estimate   =   -4618.07494886 Ry
     estimated scf accuracy    <       0.01029071 Ry

     total magnetization       =     5.00 Bohr mag/cell
     absolute magnetization    =     5.24 Bohr mag/cell

     iteration #  7     ecut=    52.00 Ry     beta= 0.70
     Davidson diagonalization with overlap
     ethr =  7.20E-06,  avg # of iterations = 10.0

     total cpu time spent up to now is      195.5 secs

     total energy              =   -4618.07307450 Ry
     Harris-Foulkes estimate   =   -4618.07491286 Ry
     estimated scf accuracy    <       0.00542761 Ry

     total magnetization       =     5.00 Bohr mag/cell
     absolute magnetization    =     5.21 Bohr mag/cell

     iteration #  8     ecut=    52.00 Ry     beta= 0.70
     Davidson diagonalization with overlap
     ethr =  3.80E-06,  avg # of iterations = 14.0

     total cpu time spent up to now is      222.5 secs

     total energy              =   -4618.07428581 Ry
     Harris-Foulkes estimate   =   -4618.07330111 Ry
     estimated scf accuracy    <       0.00316469 Ry

     total magnetization       =     5.00 Bohr mag/cell
     absolute magnetization    =     5.21 Bohr mag/cell

     iteration #  9     ecut=    52.00 Ry     beta= 0.70
     Davidson diagonalization with overlap
     ethr =  2.21E-06,  avg # of iterations =  7.5

     total cpu time spent up to now is      250.1 secs

     total energy              =   -4618.07520269 Ry
     Harris-Foulkes estimate   =   -4618.07459031 Ry
     estimated scf accuracy    <       0.00147827 Ry

     total magnetization       =     5.00 Bohr mag/cell
     absolute magnetization    =     5.21 Bohr mag/cell

     iteration # 10     ecut=    52.00 Ry     beta= 0.70
     Davidson diagonalization with overlap
     ethr =  1.03E-06,  avg # of iterations =  3.0

     total cpu time spent up to now is      274.2 secs

     total energy              =   -4618.07591568 Ry
     Harris-Foulkes estimate   =   -4618.07525819 Ry
     estimated scf accuracy    <       0.00080532 Ry

     total magnetization       =     5.00 Bohr mag/cell
     absolute magnetization    =     5.20 Bohr mag/cell

     iteration # 11     ecut=    52.00 Ry     beta= 0.70
     Davidson diagonalization with overlap
     ethr =  5.63E-07,  avg # of iterations =  5.0

     total cpu time spent up to now is      299.5 secs

     total energy              =   -4618.07613817 Ry
     Harris-Foulkes estimate   =   -4618.07600770 Ry
     estimated scf accuracy    <       0.00058557 Ry

     total magnetization       =     5.00 Bohr mag/cell
     absolute magnetization    =     5.20 Bohr mag/cell

     iteration # 12     ecut=    52.00 Ry     beta= 0.70
     Davidson diagonalization with overlap
     ethr =  4.09E-07,  avg # of iterations =  3.5

     total cpu time spent up to now is      323.3 secs

     total energy              =   -4618.07623022 Ry
     Harris-Foulkes estimate   =   -4618.07616884 Ry
     estimated scf accuracy    <       0.00032528 Ry

     total magnetization       =     5.00 Bohr mag/cell
     absolute magnetization    =     5.21 Bohr mag/cell

     iteration # 13     ecut=    52.00 Ry     beta= 0.70
     Davidson diagonalization with overlap
     ethr =  2.27E-07,  avg # of iterations =  4.5

     total cpu time spent up to now is      349.2 secs

     total energy              =   -4618.07627525 Ry
     Harris-Foulkes estimate   =   -4618.07628644 Ry
     estimated scf accuracy    <       0.00013293 Ry

     total magnetization       =     5.00 Bohr mag/cell
     absolute magnetization    =     5.21 Bohr mag/cell

     iteration # 14     ecut=    52.00 Ry     beta= 0.70
     Davidson diagonalization with overlap
     ethr =  9.30E-08,  avg # of iterations =  2.0

     total cpu time spent up to now is      372.9 secs

     total energy              =   -4618.07643129 Ry
     Harris-Foulkes estimate   =   -4618.07628395 Ry
     estimated scf accuracy    <       0.00005173 Ry

     total magnetization       =     5.00 Bohr mag/cell
     absolute magnetization    =     5.21 Bohr mag/cell

     iteration # 15     ecut=    52.00 Ry     beta= 0.70
     Davidson diagonalization with overlap
     ethr =  3.62E-08,  avg # of iterations =  5.0

     total cpu time spent up to now is      397.7 secs

     total energy              =   -4618.07645380 Ry
     Harris-Foulkes estimate   =   -4618.07643576 Ry
     estimated scf accuracy    <       0.00001575 Ry

     total magnetization       =     5.00 Bohr mag/cell
     absolute magnetization    =     5.21 Bohr mag/cell

     iteration # 16     ecut=    52.00 Ry     beta= 0.70
     Davidson diagonalization with overlap
     ethr =  1.10E-08,  avg # of iterations =  2.5

     total cpu time spent up to now is      421.2 secs

     total energy              =   -4618.07645800 Ry
     Harris-Foulkes estimate   =   -4618.07645470 Ry
     estimated scf accuracy    <       0.00000782 Ry

     total magnetization       =     5.00 Bohr mag/cell
     absolute magnetization    =     5.21 Bohr mag/cell

     iteration # 17     ecut=    52.00 Ry     beta= 0.70
     Davidson diagonalization with overlap
     ethr =  5.47E-09,  avg # of iterations =  2.0

     total cpu time spent up to now is      444.5 secs

     total energy              =   -4618.07645398 Ry
     Harris-Foulkes estimate   =   -4618.07645830 Ry
     estimated scf accuracy    <       0.00000337 Ry

     total magnetization       =     5.00 Bohr mag/cell
     absolute magnetization    =     5.21 Bohr mag/cell

     iteration # 18     ecut=    52.00 Ry     beta= 0.70
     Davidson diagonalization with overlap
     ethr =  2.35E-09,  avg # of iterations =  2.5

     total cpu time spent up to now is      468.4 secs

     total energy              =   -4618.07645449 Ry
     Harris-Foulkes estimate   =   -4618.07645417 Ry
     estimated scf accuracy    <       0.00000068 Ry

     total magnetization       =     5.00 Bohr mag/cell
     absolute magnetization    =     5.21 Bohr mag/cell

     iteration # 19     ecut=    52.00 Ry     beta= 0.70
     Davidson diagonalization with overlap
     ethr =  4.77E-10,  avg # of iterations =  3.0

     total cpu time spent up to now is      492.7 secs

     total energy              =   -4618.07645615 Ry
     Harris-Foulkes estimate   =   -4618.07645454 Ry
     estimated scf accuracy    <       0.00000021 Ry

     total magnetization       =     5.00 Bohr mag/cell
     absolute magnetization    =     5.21 Bohr mag/cell

     iteration # 20     ecut=    52.00 Ry     beta= 0.70
     Davidson diagonalization with overlap
     ethr =  1.50E-10,  avg # of iterations =  2.5

     total cpu time spent up to now is      516.7 secs

     total energy              =   -4618.07645718 Ry
     Harris-Foulkes estimate   =   -4618.07645616 Ry
     estimated scf accuracy    <       0.00000006 Ry

     total magnetization       =     5.00 Bohr mag/cell
     absolute magnetization    =     5.21 Bohr mag/cell

     iteration # 21     ecut=    52.00 Ry     beta= 0.70
     Davidson diagonalization with overlap
     ethr =  4.04E-11,  avg # of iterations =  3.0

     total cpu time spent up to now is      540.8 secs

     total energy              =   -4618.07645731 Ry
     Harris-Foulkes estimate   =   -4618.07645719 Ry
     estimated scf accuracy    <       0.00000002 Ry

     total magnetization       =     5.00 Bohr mag/cell
     absolute magnetization    =     5.21 Bohr mag/cell

     iteration # 22     ecut=    52.00 Ry     beta= 0.70
     Davidson diagonalization with overlap
     ethr =  1.30E-11,  avg # of iterations =  4.0
 
     Magnetic moment per site:
     atom:    1    charge:    9.4181    magn:    0.1129    constr:    0.0000
     atom:    2    charge:    9.4181    magn:    0.1129    constr:    0.0000
     atom:    3    charge:    9.4180    magn:    0.1128    constr:    0.0000
     atom:    4    charge:    9.4179    magn:    0.1129    constr:    0.0000
     atom:    5    charge:    9.4180    magn:    0.1128    constr:    0.0000
     atom:    6    charge:    9.4182    magn:    0.1129    constr:    0.0000
     atom:    7    charge:    9.4180    magn:    0.1129    constr:    0.0000
     atom:    8    charge:    9.5354    magn:    0.1424    constr:    0.0000
     atom:    9    charge:    9.4179    magn:    0.1128    constr:    0.0000
     atom:   10    charge:    9.4181    magn:    0.1129    constr:    0.0000
     atom:   11    charge:    9.4180    magn:    0.1128    constr:    0.0000
     atom:   12    charge:    9.4179    magn:    0.1129    constr:    0.0000
     atom:   13    charge:    9.4181    magn:    0.1128    constr:    0.0000

     total cpu time spent up to now is      564.3 secs

     End of self-consistent calculation

 ------ SPIN UP ------------


          k = 0.0000 0.0000 0.0000 ( 85451 PWs)   bands (ev):

    -9.3876  -9.0000  -8.9998  -8.9996  -8.9993  -8.9991  -8.0289  -8.0287
    -8.0285  -7.8846  -7.8842  -7.8840  -7.8836  -7.8439  -7.8437  -7.8436
    -7.7661  -7.6810  -7.6806  -7.6804  -7.6803  -7.4623  -7.4622  -7.4618
    -7.4612  -7.4609  -7.4075  -7.4070  -7.4067  -7.1133  -7.1132  -7.1125
    -7.1120  -7.1116  -7.0470  -7.0467  -7.0463  -7.0456  -7.0450  -6.6579
    -6.6579  -6.6578  -6.5862  -6.5859  -6.5856  -6.5854  -6.4176  -6.4175
    -6.4174  -6.4173  -6.4173  -6.3829  -6.3826  -6.3823  -6.3822  -6.2943
    -6.2942  -6.2942  -6.2639  -6.2636  -6.2636  -6.2633  -6.2632  -6.1286
    -6.1285  -6.1283  -5.4150  -5.4146  -5.4145  -3.2350  -3.2344  -3.2341
    -3.2333  -3.2329  -2.5174  -1.1803  -1.1788  -1.1769  -0.8115  -0.8110
    -0.8101  -0.8089  -0.7762  -0.7747  -0.7740   0.1849

     occupation numbers 
     1.0000   1.0000   1.0000   1.0000   1.0000   1.0000   1.0000   1.0000
     1.0000   1.0000   1.0000   1.0000   1.0000   1.0000   1.0000   1.0000
     1.0000   1.0000   1.0000   1.0000   1.0000   1.0000   1.0000   1.0000
     1.0000   1.0000   1.0000   1.0000   1.0000   1.0000   1.0000   1.0000
     1.0000   1.0000   1.0000   1.0000   1.0000   1.0000   1.0000   1.0000
     1.0000   1.0000   1.0000   1.0000   1.0000   1.0000   1.0000   1.0000
     1.0000   1.0000   1.0000   1.0000   1.0000   1.0000   1.0000   1.0000
     1.0000   1.0000   1.0000   1.0000   1.0000   1.0000   1.0000   1.0000
     1.0000   1.0000   1.0000   1.0000   1.0000   1.0000   1.0000   1.0000
     1.0000   1.0000   0.0000   0.0000   0.0000   0.0000   0.0000   0.0000
     0.0000   0.0000   0.0000   0.0000   0.0000   0.0000

 ------ SPIN DOWN ----------


          k = 0.0000 0.0000 0.0000 ( 85451 PWs)   bands (ev):

    -9.3253  -8.9131  -8.9129  -8.9127  -8.9124  -8.9122  -7.9396  -7.9393
    -7.9391  -7.7967  -7.7964  -7.7961  -7.7957  -7.7113  -7.7111  -7.7110
    -7.5706  -7.5702  -7.5700  -7.5699  -7.5158  -7.3529  -7.3528  -7.3524
    -7.3519  -7.3515  -7.2645  -7.2640  -7.2637  -7.0196  -7.0195  -7.0189
    -7.0183  -7.0179  -6.9589  -6.9586  -6.9582  -6.9575  -6.9569  -6.5821
    -6.5821  -6.5820  -6.4901  -6.4898  -6.4896  -6.4894  -6.3291  -6.3291
    -6.3289  -6.3289  -6.3288  -6.2921  -6.2918  -6.2915  -6.2914  -6.2115
    -6.2115  -6.2114  -6.1679  -6.1676  -6.1676  -6.1673  -6.1671  -6.0617
    -6.0616  -6.0615  -5.1416  -5.1413  -5.1411  -2.8175  -2.8169  -2.8163
    -2.8155  -2.8150  -2.1957  -0.7820  -0.7799  -0.7780  -0.4900  -0.4890
    -0.4883  -0.3686  -0.3669  -0.3639  -0.3613   0.2579

     occupation numbers 
     1.0000   1.0000   1.0000   1.0000   1.0000   1.0000   1.0000   1.0000
     1.0000   1.0000   1.0000   1.0000   1.0000   1.0000   1.0000   1.0000
     1.0000   1.0000   1.0000   1.0000   1.0000   1.0000   1.0000   1.0000
     1.0000   1.0000   1.0000   1.0000   1.0000   1.0000   1.0000   1.0000
     1.0000   1.0000   1.0000   1.0000   1.0000   1.0000   1.0000   1.0000
     1.0000   1.0000   1.0000   1.0000   1.0000   1.0000   1.0000   1.0000
     1.0000   1.0000   1.0000   1.0000   1.0000   1.0000   1.0000   1.0000
     1.0000   1.0000   1.0000   1.0000   1.0000   1.0000   1.0000   1.0000
     1.0000   1.0000   1.0000   1.0000   1.0000   0.0000   0.0000   0.0000
     0.0000   0.0000   0.0000   0.0000   0.0000   0.0000   0.0000   0.0000
     0.0000   0.0000   0.0000   0.0000   0.0000   0.0000

     the Fermi energy is    -3.0252 ev

!    total energy              =   -4618.07645689 Ry
     Harris-Foulkes estimate   =   -4618.07645731 Ry
     estimated scf accuracy    <          6.7E-09 Ry

     total all-electron energy =   -138218.635178 Ry

     The total energy is the sum of the following terms:

     one-electron contribution =   -3607.93781528 Ry
     hartree contribution      =    1903.28707480 Ry
     xc contribution           =    -462.98780870 Ry
     ewald contribution        =     962.01017865 Ry
     one-center paw contrib.   =   -3412.44808637 Ry
      -> PAW hartree energy AE =      66.85487622 Ry
      -> PAW hartree energy PS =     -66.70707928 Ry
      -> PAW xc energy AE      =    -297.86633758 Ry
      -> PAW xc energy PS      =      35.22366331 Ry
      -> total E_H with PAW    =    1903.43487174 Ry
      -> total E_XC with PAW   =    -725.63048297 Ry
     smearing contrib. (-TS)   =      -0.00000000 Ry

     total magnetization       =     5.00 Bohr mag/cell
     absolute magnetization    =     5.21 Bohr mag/cell

     convergence has been achieved in  22 iterations

     Writing output data file ./tmp/ag13.save/
 
     init_run     :     13.16s CPU     13.74s WALL (       1 calls)
     electrons    :    537.12s CPU    548.81s WALL (       1 calls)

     Called by init_run:
     wfcinit      :      6.63s CPU      6.79s WALL (       1 calls)
     wfcinit:atom :      0.04s CPU      0.06s WALL (       2 calls)
     wfcinit:wfcr :      6.47s CPU      6.57s WALL (       2 calls)
     potinit      :      3.04s CPU      3.20s WALL (       1 calls)
     hinit0       :      0.76s CPU      0.84s WALL (       1 calls)

     Called by electrons:
     c_bands      :    289.74s CPU    294.08s WALL (      22 calls)
     sum_band     :    115.98s CPU    119.12s WALL (      22 calls)
     v_of_rho     :     30.04s CPU     30.49s WALL (      23 calls)
     v_h          :      1.90s CPU      1.92s WALL (      23 calls)
     v_xc         :     28.13s CPU     28.57s WALL (      23 calls)
     newd         :     32.38s CPU     35.31s WALL (      23 calls)
     PAW_pot      :     29.82s CPU     30.04s WALL (      23 calls)
     mix_rho      :     36.59s CPU     37.17s WALL (      22 calls)

     Called by c_bands:
     init_us_2    :      2.00s CPU      2.03s WALL (      90 calls)
     regterg      :    279.36s CPU    283.63s WALL (      44 calls)

     Called by sum_band:
     sum_band:bec :      0.02s CPU      0.02s WALL (      44 calls)
     addusdens    :     58.54s CPU     61.35s WALL (      22 calls)

     Called by *egterg:
     h_psi        :    220.75s CPU    222.02s WALL (     249 calls)
     s_psi        :     16.71s CPU     16.74s WALL (     249 calls)
     g_psi        :      0.55s CPU      0.55s WALL (     203 calls)
     rdiaghg      :      6.29s CPU      6.65s WALL (     247 calls)
     regterg:over :     14.16s CPU     14.20s WALL (     203 calls)
     regterg:upda :     13.38s CPU     13.51s WALL (     203 calls)
     regterg:last :      4.39s CPU      4.40s WALL (      44 calls)
     rdiaghg:chol :      0.22s CPU      0.23s WALL (     247 calls)
     rdiaghg:inve :      0.17s CPU      0.18s WALL (     247 calls)
     rdiaghg:para :      0.52s CPU      0.52s WALL (     494 calls)

     Called by h_psi:
     h_psi:calbec :     12.18s CPU     12.21s WALL (     249 calls)
     vloc_psi     :    190.49s CPU    191.67s WALL (     249 calls)
     add_vuspsi   :     16.92s CPU     16.98s WALL (     249 calls)

     General routines
     calbec       :     16.37s CPU     16.41s WALL (     293 calls)
     fft          :     29.49s CPU     29.72s WALL (     476 calls)
     ffts         :     23.92s CPU     24.07s WALL (     533 calls)
     fftw         :    182.25s CPU    183.43s WALL (   10604 calls)
     interpolate  :      5.60s CPU      5.66s WALL (      46 calls)
 
     Parallel routines
     fft_scatt_xy :     43.33s CPU     43.73s WALL (   11613 calls)
     fft_scatt_yz :     56.75s CPU     57.07s WALL (   11613 calls)

     PAW routines
     PAW_pot      :     29.82s CPU     30.04s WALL (      23 calls)
 
     PWSCF        :   9m12.38s CPU   9m25.59s WALL

 
   This run was terminated on:   2:48:35   5Jun2020            

=------------------------------------------------------------------------------=
   JOB DONE.
=------------------------------------------------------------------------------=
