
     Program PWSCF v.6.5 starts on  5Jun2020 at  2:19:18 

     This program is part of the open-source Quantum ESPRESSO suite
     for quantum simulation of materials; please cite
         "P. Giannozzi et al., J. Phys.:Condens. Matter 21 395502 (2009);
         "P. Giannozzi et al., J. Phys.:Condens. Matter 29 465901 (2017);
          URL http://www.quantum-espresso.org", 
     in publications or presentations arising from this work. More details at
     http://www.quantum-espresso.org/quote

     Parallel version (MPI & OpenMP), running on      24 processor cores
     Number of MPI processes:                24
     Threads/MPI process:                     1

     MPI processes distributed on     1 nodes
     R & G space division:  proc/nbgrp/npool/nimage =      24
     Waiting for input...
     Reading input from standard input

     Current dimensions of program PWSCF are:
     Max number of different atomic species (ntypx) = 10
     Max number of k-points (npk) =  40000
     Max angular momentum in pseudopotentials (lmaxx) =  3
               file Ag.pbe-dn-kjpaw_psl.0.1.UPF: wavefunction(s)  5S 5P 4D renormalized

     gamma-point specific algorithms are used

     Subspace diagonalization in iterative solution of the eigenvalue problem:
     one sub-group per band group will be used
     scalapack distributed-memory algorithm (size of sub-group:  4*  4 procs)

 
     Parallelization info
     --------------------
     sticks:   dense  smooth     PW     G-vecs:    dense   smooth      PW
     Min         566     440    108                49770    34184    4260
     Max         570     442    110                49774    34190    4274
     Sum       13621   10605   2637              1194519   820537  102399
 


     bravais-lattice index     =            1
     lattice parameter (alat)  =      30.0000  a.u.
     unit-cell volume          =   27000.0000 (a.u.)^3
     number of atoms/cell      =           13
     number of atomic types    =            1
     number of electrons       =       143.00
     number of Kohn-Sham states=           86
     kinetic-energy cutoff     =      37.0000  Ry
     charge density cutoff     =     190.0000  Ry
     convergence threshold     =      1.0E-08
     mixing beta               =       0.7000
     number of iterations used =            8  local-TF  mixing
     Exchange-correlation= SLA PW PBX PBC
                           (   1   4   3   4   0   0   0)

     celldm(1)=  30.000000  celldm(2)=   0.000000  celldm(3)=   0.000000
     celldm(4)=   0.000000  celldm(5)=   0.000000  celldm(6)=   0.000000

     crystal axes: (cart. coord. in units of alat)
               a(1) = (   1.000000   0.000000   0.000000 )  
               a(2) = (   0.000000   1.000000   0.000000 )  
               a(3) = (   0.000000   0.000000   1.000000 )  

     reciprocal axes: (cart. coord. in units 2 pi/alat)
               b(1) = (  1.000000  0.000000  0.000000 )  
               b(2) = (  0.000000  1.000000  0.000000 )  
               b(3) = (  0.000000  0.000000  1.000000 )  


     PseudoPot. # 1 for Ag read from file:
     ../../pseudo/Ag.pbe-dn-kjpaw_psl.0.1.UPF
     MD5 check sum: 2edc915f30f03476250949c796a6a376
     Pseudo is Projector augmented-wave + core cor, Zval = 11.0
     Generated using "atomic" code by A. Dal Corso v.5.0.2 svn rev. 9415
     Shape of augmentation charge: PSQ
     Using radial grid of 1237 points,  6 beta functions with: 
                l(1) =   0
                l(2) =   0
                l(3) =   1
                l(4) =   1
                l(5) =   2
                l(6) =   2
     Q(r) pseudized with 0 coefficients 


     atomic species   valence    mass     pseudopotential
        Ag            11.00   107.87000     Ag( 1.00)

     Starting magnetic structure 
     atomic species   magnetization
        Ag           0.700

     No symmetry found


                                    s                        frac. trans.

      isym =  1     identity                                     

 cryst.   s( 1) = (     1          0          0      )
                  (     0          1          0      )
                  (     0          0          1      )

 cart.    s( 1) = (  1.0000000  0.0000000  0.0000000 )
                  (  0.0000000  1.0000000  0.0000000 )
                  (  0.0000000  0.0000000  1.0000000 )


     point group C_1 (1)    
     there are  1 classes
     the character table:

       E    
A      1.00

     the symmetry operations in each class and the name of the first element:

     E        1
          identity                                               

   Cartesian axes

     site n.     atom                  positions (alat units)
         1           Ag  tau(   1) = (   0.1491734   0.1458890   0.2837596  )
         2           Ag  tau(   2) = (   0.1792846   0.3119907   0.3576786  )
         3           Ag  tau(   3) = (   0.4329009   0.2204880   0.2303197  )
         4           Ag  tau(   4) = (   0.3110329   0.1832594   0.3634954  )
         5           Ag  tau(   5) = (   0.3462969   0.2059790   0.0682615  )
         6           Ag  tau(   6) = (   0.3764058   0.3721183   0.1421461  )
         7           Ag  tau(   7) = (   0.1710023   0.1598862   0.1012802  )
         8           Ag  tau(   8) = (   0.2627924   0.2590014   0.2129455  )
         9           Ag  tau(   9) = (   0.2195907   0.4286912   0.2208285  )
        10           Ag  tau(  10) = (   0.3545741   0.3581333   0.3245700  )
        11           Ag  tau(  11) = (   0.0926946   0.2974737   0.1955799  )
        12           Ag  tau(  12) = (   0.2145339   0.3347544   0.0624028  )
        13           Ag  tau(  13) = (   0.3059095   0.0893008   0.2050735  )

   Crystallographic axes

     site n.     atom                  positions (cryst. coord.)
         1           Ag  tau(   1) = (  0.1491734  0.1458890  0.2837596  )
         2           Ag  tau(   2) = (  0.1792846  0.3119907  0.3576786  )
         3           Ag  tau(   3) = (  0.4329009  0.2204880  0.2303197  )
         4           Ag  tau(   4) = (  0.3110329  0.1832594  0.3634954  )
         5           Ag  tau(   5) = (  0.3462969  0.2059790  0.0682615  )
         6           Ag  tau(   6) = (  0.3764058  0.3721183  0.1421461  )
         7           Ag  tau(   7) = (  0.1710023  0.1598862  0.1012802  )
         8           Ag  tau(   8) = (  0.2627924  0.2590014  0.2129455  )
         9           Ag  tau(   9) = (  0.2195907  0.4286912  0.2208285  )
        10           Ag  tau(  10) = (  0.3545741  0.3581333  0.3245700  )
        11           Ag  tau(  11) = (  0.0926946  0.2974737  0.1955799  )
        12           Ag  tau(  12) = (  0.2145339  0.3347544  0.0624028  )
        13           Ag  tau(  13) = (  0.3059095  0.0893008  0.2050735  )

     number of k points=     1  Fermi-Dirac smearing, width (Ry)=  0.0007
                       cart. coord. in units 2pi/alat
        k(    1) = (   0.0000000   0.0000000   0.0000000), wk =   1.0000000

                       cryst. coord.
        k(    1) = (   0.0000000   0.0000000   0.0000000), wk =   1.0000000

     Dense  grid:   597260 G-vectors     FFT dimensions: ( 135, 135, 135)

     Smooth grid:   410269 G-vectors     FFT dimensions: ( 120, 120, 120)

     Dynamical RAM for                 wfc:       2.80 MB

     Dynamical RAM for     wfc (w. buffer):       8.41 MB

     Dynamical RAM for           str. fact:       0.38 MB

     Dynamical RAM for           local pot:       0.00 MB

     Dynamical RAM for          nlocal pot:       7.63 MB

     Dynamical RAM for                qrad:       5.28 MB

     Dynamical RAM for          rho,v,vnew:       7.28 MB

     Dynamical RAM for               rhoin:       2.43 MB

     Dynamical RAM for            rho*nmix:      12.15 MB

     Dynamical RAM for           G-vectors:       1.55 MB

     Dynamical RAM for          h,s,v(r/c):       0.17 MB

     Dynamical RAM for          <psi|beta>:       0.15 MB

     Dynamical RAM for                 psi:      11.22 MB

     Dynamical RAM for                hpsi:      11.22 MB

     Dynamical RAM for                spsi:      11.22 MB

     Dynamical RAM for      wfcinit/wfcrot:       7.94 MB

     Dynamical RAM for           addusdens:      75.95 MB

     Estimated static dynamical RAM per process >      50.88 MB

     Estimated max dynamical RAM per process >     126.83 MB

     Estimated total dynamical RAM >       2.97 GB
     Generating pointlists ...
     new r_m :   0.0723 (alat units)  2.1687 (a.u.) for type    1

     Check: negative core charge=   -0.000002

     Initial potential from superposition of free atoms

     starting charge  142.99482, renormalised to  143.00000
     Starting wfcs are  117 randomized atomic wfcs
     Checking if some PAW data can be deallocated... 

     total cpu time spent up to now is       10.1 secs

     Self-consistent Calculation

     iteration #  1     ecut=    37.00 Ry     beta= 0.70
     Davidson diagonalization with overlap
     ethr =  1.00E-02,  avg # of iterations =  3.5

     total cpu time spent up to now is       24.0 secs

     total energy              =   -4617.19893731 Ry
     Harris-Foulkes estimate   =   -4610.27899313 Ry
     estimated scf accuracy    <       7.35701464 Ry

     total magnetization       =     5.00 Bohr mag/cell
     absolute magnetization    =     5.01 Bohr mag/cell

     iteration #  2     ecut=    37.00 Ry     beta= 0.70
     Davidson diagonalization with overlap
     ethr =  5.14E-03,  avg # of iterations =  1.0

     total cpu time spent up to now is       36.4 secs

     total energy              =   -4617.93729838 Ry
     Harris-Foulkes estimate   =   -4617.30251657 Ry
     estimated scf accuracy    <       0.96407226 Ry

     total magnetization       =     5.00 Bohr mag/cell
     absolute magnetization    =     5.03 Bohr mag/cell

     iteration #  3     ecut=    37.00 Ry     beta= 0.70
     Davidson diagonalization with overlap
     ethr =  6.74E-04,  avg # of iterations =  2.0

     total cpu time spent up to now is       49.3 secs

     total energy              =   -4617.99703095 Ry
     Harris-Foulkes estimate   =   -4618.00605428 Ry
     estimated scf accuracy    <       0.07752705 Ry

     total magnetization       =     5.00 Bohr mag/cell
     absolute magnetization    =     5.04 Bohr mag/cell

     iteration #  4     ecut=    37.00 Ry     beta= 0.70
     Davidson diagonalization with overlap
     c_bands:  1 eigenvalues not converged
     ethr =  5.42E-05,  avg # of iterations = 14.5

     total cpu time spent up to now is       69.4 secs

     total energy              =   -4618.01251606 Ry
     Harris-Foulkes estimate   =   -4618.01907209 Ry
     estimated scf accuracy    <       0.03440911 Ry

     total magnetization       =     5.00 Bohr mag/cell
     absolute magnetization    =     5.12 Bohr mag/cell

     iteration #  5     ecut=    37.00 Ry     beta= 0.70
     Davidson diagonalization with overlap
     ethr =  2.41E-05,  avg # of iterations =  2.0

     total cpu time spent up to now is       82.2 secs

     total energy              =   -4618.00771318 Ry
     Harris-Foulkes estimate   =   -4618.01418480 Ry
     estimated scf accuracy    <       0.01893100 Ry

     total magnetization       =     5.00 Bohr mag/cell
     absolute magnetization    =     5.18 Bohr mag/cell

     iteration #  6     ecut=    37.00 Ry     beta= 0.70
     Davidson diagonalization with overlap
     ethr =  1.32E-05,  avg # of iterations =  8.5

     total cpu time spent up to now is       96.4 secs

     total energy              =   -4618.00716608 Ry
     Harris-Foulkes estimate   =   -4618.00894267 Ry
     estimated scf accuracy    <       0.01088133 Ry

     total magnetization       =     5.00 Bohr mag/cell
     absolute magnetization    =     5.26 Bohr mag/cell

     iteration #  7     ecut=    37.00 Ry     beta= 0.70
     Davidson diagonalization with overlap
     ethr =  7.61E-06,  avg # of iterations = 12.5

     total cpu time spent up to now is      112.3 secs

     total energy              =   -4618.00589722 Ry
     Harris-Foulkes estimate   =   -4618.00823995 Ry
     estimated scf accuracy    <       0.00571340 Ry

     total magnetization       =     5.00 Bohr mag/cell
     absolute magnetization    =     5.20 Bohr mag/cell

     iteration #  8     ecut=    37.00 Ry     beta= 0.70
     Davidson diagonalization with overlap
     ethr =  4.00E-06,  avg # of iterations =  8.0

     total cpu time spent up to now is      126.6 secs

     total energy              =   -4618.00738044 Ry
     Harris-Foulkes estimate   =   -4618.00613484 Ry
     estimated scf accuracy    <       0.00347536 Ry

     total magnetization       =     5.00 Bohr mag/cell
     absolute magnetization    =     5.21 Bohr mag/cell

     iteration #  9     ecut=    37.00 Ry     beta= 0.70
     Davidson diagonalization with overlap
     ethr =  2.43E-06,  avg # of iterations =  7.0

     total cpu time spent up to now is      141.8 secs

     total energy              =   -4618.00865883 Ry
     Harris-Foulkes estimate   =   -4618.00778780 Ry
     estimated scf accuracy    <       0.00165084 Ry

     total magnetization       =     5.00 Bohr mag/cell
     absolute magnetization    =     5.22 Bohr mag/cell

     iteration # 10     ecut=    37.00 Ry     beta= 0.70
     Davidson diagonalization with overlap
     ethr =  1.15E-06,  avg # of iterations =  6.5

     total cpu time spent up to now is      155.9 secs

     total energy              =   -4618.00887951 Ry
     Harris-Foulkes estimate   =   -4618.00878139 Ry
     estimated scf accuracy    <       0.00083185 Ry

     total magnetization       =     5.00 Bohr mag/cell
     absolute magnetization    =     5.20 Bohr mag/cell

     iteration # 11     ecut=    37.00 Ry     beta= 0.70
     Davidson diagonalization with overlap
     ethr =  5.82E-07,  avg # of iterations =  6.5

     total cpu time spent up to now is      169.6 secs

     total energy              =   -4618.00908383 Ry
     Harris-Foulkes estimate   =   -4618.00892898 Ry
     estimated scf accuracy    <       0.00051231 Ry

     total magnetization       =     5.00 Bohr mag/cell
     absolute magnetization    =     5.21 Bohr mag/cell

     iteration # 12     ecut=    37.00 Ry     beta= 0.70
     Davidson diagonalization with overlap
     ethr =  3.58E-07,  avg # of iterations =  5.5

     total cpu time spent up to now is      183.3 secs

     total energy              =   -4618.00878588 Ry
     Harris-Foulkes estimate   =   -4618.00910593 Ry
     estimated scf accuracy    <       0.00038589 Ry

     total magnetization       =     5.00 Bohr mag/cell
     absolute magnetization    =     5.22 Bohr mag/cell

     iteration # 13     ecut=    37.00 Ry     beta= 0.70
     Davidson diagonalization with overlap
     ethr =  2.70E-07,  avg # of iterations =  6.0

     total cpu time spent up to now is      198.8 secs

     total energy              =   -4618.00884478 Ry
     Harris-Foulkes estimate   =   -4618.00888144 Ry
     estimated scf accuracy    <       0.00021570 Ry

     total magnetization       =     5.00 Bohr mag/cell
     absolute magnetization    =     5.21 Bohr mag/cell

     iteration # 14     ecut=    37.00 Ry     beta= 0.70
     Davidson diagonalization with overlap
     ethr =  1.51E-07,  avg # of iterations =  3.5

     total cpu time spent up to now is      211.8 secs

     total energy              =   -4618.00889051 Ry
     Harris-Foulkes estimate   =   -4618.00885101 Ry
     estimated scf accuracy    <       0.00010391 Ry

     total magnetization       =     5.00 Bohr mag/cell
     absolute magnetization    =     5.21 Bohr mag/cell

     iteration # 15     ecut=    37.00 Ry     beta= 0.70
     Davidson diagonalization with overlap
     ethr =  7.27E-08,  avg # of iterations =  5.5

     total cpu time spent up to now is      225.9 secs

     total energy              =   -4618.00897913 Ry
     Harris-Foulkes estimate   =   -4618.00890675 Ry
     estimated scf accuracy    <       0.00002737 Ry

     total magnetization       =     5.00 Bohr mag/cell
     absolute magnetization    =     5.21 Bohr mag/cell

     iteration # 16     ecut=    37.00 Ry     beta= 0.70
     Davidson diagonalization with overlap
     ethr =  1.91E-08,  avg # of iterations =  3.0

     total cpu time spent up to now is      239.5 secs

     total energy              =   -4618.00901861 Ry
     Harris-Foulkes estimate   =   -4618.00898219 Ry
     estimated scf accuracy    <       0.00001127 Ry

     total magnetization       =     5.00 Bohr mag/cell
     absolute magnetization    =     5.21 Bohr mag/cell

     iteration # 17     ecut=    37.00 Ry     beta= 0.70
     Davidson diagonalization with overlap
     ethr =  7.88E-09,  avg # of iterations =  6.5

     total cpu time spent up to now is      253.4 secs

     total energy              =   -4618.00901858 Ry
     Harris-Foulkes estimate   =   -4618.00901928 Ry
     estimated scf accuracy    <       0.00000511 Ry

     total magnetization       =     5.00 Bohr mag/cell
     absolute magnetization    =     5.21 Bohr mag/cell

     iteration # 18     ecut=    37.00 Ry     beta= 0.70
     Davidson diagonalization with overlap
     ethr =  3.57E-09,  avg # of iterations =  6.5

     total cpu time spent up to now is      267.5 secs

     total energy              =   -4618.00902093 Ry
     Harris-Foulkes estimate   =   -4618.00901901 Ry
     estimated scf accuracy    <       0.00000106 Ry

     total magnetization       =     5.00 Bohr mag/cell
     absolute magnetization    =     5.21 Bohr mag/cell

     iteration # 19     ecut=    37.00 Ry     beta= 0.70
     Davidson diagonalization with overlap
     ethr =  7.44E-10,  avg # of iterations =  3.0

     total cpu time spent up to now is      280.8 secs

     total energy              =   -4618.00902279 Ry
     Harris-Foulkes estimate   =   -4618.00902101 Ry
     estimated scf accuracy    <       0.00000038 Ry

     total magnetization       =     5.00 Bohr mag/cell
     absolute magnetization    =     5.21 Bohr mag/cell

     iteration # 20     ecut=    37.00 Ry     beta= 0.70
     Davidson diagonalization with overlap
     ethr =  2.65E-10,  avg # of iterations =  3.5

     total cpu time spent up to now is      294.8 secs

     total energy              =   -4618.00902411 Ry
     Harris-Foulkes estimate   =   -4618.00902285 Ry
     estimated scf accuracy    <       0.00000010 Ry

     total magnetization       =     5.00 Bohr mag/cell
     absolute magnetization    =     5.21 Bohr mag/cell

     iteration # 21     ecut=    37.00 Ry     beta= 0.70
     Davidson diagonalization with overlap
     ethr =  7.33E-11,  avg # of iterations =  3.5

     total cpu time spent up to now is      308.2 secs

     total energy              =   -4618.00902592 Ry
     Harris-Foulkes estimate   =   -4618.00902412 Ry
     estimated scf accuracy    <       0.00000004 Ry

     total magnetization       =     5.00 Bohr mag/cell
     absolute magnetization    =     5.21 Bohr mag/cell

     iteration # 22     ecut=    37.00 Ry     beta= 0.70
     Davidson diagonalization with overlap
     ethr =  2.51E-11,  avg # of iterations =  4.5
 
     Magnetic moment per site:
     atom:    1    charge:    9.4163    magn:    0.1129    constr:    0.0000
     atom:    2    charge:    9.4161    magn:    0.1129    constr:    0.0000
     atom:    3    charge:    9.4162    magn:    0.1128    constr:    0.0000
     atom:    4    charge:    9.4158    magn:    0.1129    constr:    0.0000
     atom:    5    charge:    9.4162    magn:    0.1128    constr:    0.0000
     atom:    6    charge:    9.4163    magn:    0.1129    constr:    0.0000
     atom:    7    charge:    9.4163    magn:    0.1128    constr:    0.0000
     atom:    8    charge:    9.5335    magn:    0.1427    constr:    0.0000
     atom:    9    charge:    9.4162    magn:    0.1128    constr:    0.0000
     atom:   10    charge:    9.4163    magn:    0.1128    constr:    0.0000
     atom:   11    charge:    9.4162    magn:    0.1128    constr:    0.0000
     atom:   12    charge:    9.4162    magn:    0.1129    constr:    0.0000
     atom:   13    charge:    9.4163    magn:    0.1128    constr:    0.0000

     total cpu time spent up to now is      321.6 secs

     End of self-consistent calculation

 ------ SPIN UP ------------


          k = 0.0000 0.0000 0.0000 ( 51200 PWs)   bands (ev):

    -9.3707  -8.9825  -8.9823  -8.9821  -8.9818  -8.9816  -8.0122  -8.0119
    -8.0117  -7.8680  -7.8677  -7.8674  -7.8670  -7.8275  -7.8272  -7.8272
    -7.7507  -7.6644  -7.6640  -7.6638  -7.6637  -7.4453  -7.4451  -7.4448
    -7.4442  -7.4439  -7.3910  -7.3905  -7.3902  -7.0964  -7.0963  -7.0957
    -7.0951  -7.0947  -7.0301  -7.0298  -7.0294  -7.0287  -7.0281  -6.6409
    -6.6409  -6.6408  -6.5692  -6.5689  -6.5686  -6.5684  -6.4003  -6.4003
    -6.4002  -6.4001  -6.4000  -6.3654  -6.3651  -6.3649  -6.3648  -6.2769
    -6.2768  -6.2767  -6.2467  -6.2464  -6.2464  -6.2461  -6.2460  -6.1107
    -6.1105  -6.1104  -5.3997  -5.3994  -5.3992  -3.2184  -3.2179  -3.2177
    -3.2168  -3.2164  -2.4905  -1.1558  -1.1546  -1.1531  -0.7842  -0.7834
    -0.7823  -0.7811  -0.7257  -0.7251  -0.7245   0.4891

     occupation numbers 
     1.0000   1.0000   1.0000   1.0000   1.0000   1.0000   1.0000   1.0000
     1.0000   1.0000   1.0000   1.0000   1.0000   1.0000   1.0000   1.0000
     1.0000   1.0000   1.0000   1.0000   1.0000   1.0000   1.0000   1.0000
     1.0000   1.0000   1.0000   1.0000   1.0000   1.0000   1.0000   1.0000
     1.0000   1.0000   1.0000   1.0000   1.0000   1.0000   1.0000   1.0000
     1.0000   1.0000   1.0000   1.0000   1.0000   1.0000   1.0000   1.0000
     1.0000   1.0000   1.0000   1.0000   1.0000   1.0000   1.0000   1.0000
     1.0000   1.0000   1.0000   1.0000   1.0000   1.0000   1.0000   1.0000
     1.0000   1.0000   1.0000   1.0000   1.0000   1.0000   1.0000   1.0000
     1.0000   1.0000   0.0000   0.0000   0.0000   0.0000   0.0000   0.0000
     0.0000   0.0000   0.0000   0.0000   0.0000   0.0000

 ------ SPIN DOWN ----------


          k = 0.0000 0.0000 0.0000 ( 51200 PWs)   bands (ev):

    -9.3083  -8.8956  -8.8954  -8.8951  -8.8949  -8.8947  -7.9226  -7.9223
    -7.9221  -7.7799  -7.7796  -7.7793  -7.7789  -7.6944  -7.6942  -7.6941
    -7.5537  -7.5533  -7.5531  -7.5530  -7.4991  -7.3356  -7.3354  -7.3351
    -7.3345  -7.3342  -7.2474  -7.2469  -7.2466  -7.0024  -7.0023  -7.0017
    -7.0011  -7.0007  -6.9418  -6.9415  -6.9411  -6.9404  -6.9398  -6.5647
    -6.5647  -6.5646  -6.4725  -6.4722  -6.4720  -6.4718  -6.3114  -6.3113
    -6.3112  -6.3111  -6.3111  -6.2742  -6.2739  -6.2737  -6.2736  -6.1936
    -6.1936  -6.1935  -6.1503  -6.1500  -6.1500  -6.1497  -6.1496  -6.0437
    -6.0436  -6.0435  -5.1233  -5.1230  -5.1228  -2.7934  -2.7928  -2.7925
    -2.7916  -2.7912  -2.1570  -0.7474  -0.7459  -0.7443  -0.4223  -0.4215
    -0.4210  -0.3252  -0.3240  -0.3218  -0.3200   0.5979

     occupation numbers 
     1.0000   1.0000   1.0000   1.0000   1.0000   1.0000   1.0000   1.0000
     1.0000   1.0000   1.0000   1.0000   1.0000   1.0000   1.0000   1.0000
     1.0000   1.0000   1.0000   1.0000   1.0000   1.0000   1.0000   1.0000
     1.0000   1.0000   1.0000   1.0000   1.0000   1.0000   1.0000   1.0000
     1.0000   1.0000   1.0000   1.0000   1.0000   1.0000   1.0000   1.0000
     1.0000   1.0000   1.0000   1.0000   1.0000   1.0000   1.0000   1.0000
     1.0000   1.0000   1.0000   1.0000   1.0000   1.0000   1.0000   1.0000
     1.0000   1.0000   1.0000   1.0000   1.0000   1.0000   1.0000   1.0000
     1.0000   1.0000   1.0000   1.0000   1.0000   0.0000   0.0000   0.0000
     0.0000   0.0000   0.0000   0.0000   0.0000   0.0000   0.0000   0.0000
     0.0000   0.0000   0.0000   0.0000   0.0000   0.0000

     the Fermi energy is    -3.0048 ev

!    total energy              =   -4618.00902618 Ry
     Harris-Foulkes estimate   =   -4618.00902593 Ry
     estimated scf accuracy    <          8.3E-09 Ry

     total all-electron energy =   -138218.567747 Ry

     The total energy is the sum of the following terms:

     one-electron contribution =   -3608.02554667 Ry
     hartree contribution      =    1903.39285782 Ry
     xc contribution           =    -462.96826963 Ry
     ewald contribution        =     962.01017866 Ry
     one-center paw contrib.   =   -3412.41824636 Ry
      -> PAW hartree energy AE =      66.84099925 Ry
      -> PAW hartree energy PS =     -66.69270970 Ry
      -> PAW xc energy AE      =    -297.85911268 Ry
      -> PAW xc energy PS      =      35.21824258 Ry
      -> total E_H with PAW    =    1903.54114737 Ry
      -> total E_XC with PAW   =    -725.60913973 Ry
     smearing contrib. (-TS)   =      -0.00000000 Ry

     total magnetization       =     5.00 Bohr mag/cell
     absolute magnetization    =     5.21 Bohr mag/cell

     convergence has been achieved in  22 iterations

     Writing output data file ./tmp/ag13.save/
 
     init_run     :      7.94s CPU      8.25s WALL (       1 calls)
     electrons    :    304.42s CPU    311.60s WALL (       1 calls)

     Called by init_run:
     wfcinit      :      3.59s CPU      3.68s WALL (       1 calls)
     wfcinit:atom :      0.02s CPU      0.03s WALL (       2 calls)
     wfcinit:wfcr :      3.50s CPU      3.55s WALL (       2 calls)
     potinit      :      2.34s CPU      2.45s WALL (       1 calls)
     hinit0       :      0.56s CPU      0.57s WALL (       1 calls)

     Called by electrons:
     c_bands      :    161.73s CPU    164.65s WALL (      22 calls)
     sum_band     :     57.91s CPU     60.01s WALL (      22 calls)
     v_of_rho     :     17.84s CPU     18.05s WALL (      23 calls)
     v_h          :      1.12s CPU      1.13s WALL (      23 calls)
     v_xc         :     16.72s CPU     16.92s WALL (      23 calls)
     newd         :     17.41s CPU     18.96s WALL (      23 calls)
     PAW_pot      :     29.76s CPU     29.94s WALL (      23 calls)
     mix_rho      :     18.82s CPU     19.02s WALL (      22 calls)

     Called by c_bands:
     init_us_2    :      1.16s CPU      1.18s WALL (      90 calls)
     regterg      :    155.44s CPU    158.27s WALL (      44 calls)

     Called by sum_band:
     sum_band:bec :      0.03s CPU      0.03s WALL (      44 calls)
     addusdens    :     28.20s CPU     30.06s WALL (      22 calls)

     Called by *egterg:
     h_psi        :    113.87s CPU    114.70s WALL (     292 calls)
     s_psi        :     10.30s CPU     10.32s WALL (     292 calls)
     g_psi        :      0.34s CPU      0.34s WALL (     246 calls)
     rdiaghg      :      7.75s CPU      8.21s WALL (     290 calls)
     regterg:over :      9.41s CPU      9.43s WALL (     246 calls)
     regterg:upda :      8.68s CPU      8.72s WALL (     246 calls)
     regterg:last :      2.78s CPU      2.79s WALL (      44 calls)
     rdiaghg:chol :      0.27s CPU      0.28s WALL (     290 calls)
     rdiaghg:inve :      0.21s CPU      0.21s WALL (     290 calls)
     rdiaghg:para :      0.64s CPU      0.64s WALL (     580 calls)

     Called by h_psi:
     h_psi:calbec :      7.91s CPU      7.93s WALL (     292 calls)
     vloc_psi     :     94.87s CPU     95.65s WALL (     292 calls)
     add_vuspsi   :     10.38s CPU     10.41s WALL (     292 calls)

     General routines
     calbec       :     10.53s CPU     10.55s WALL (     336 calls)
     fft          :     17.46s CPU     17.59s WALL (     476 calls)
     ffts         :     11.88s CPU     11.95s WALL (     531 calls)
     fftw         :     89.78s CPU     90.53s WALL (   10840 calls)
     interpolate  :      3.21s CPU      3.24s WALL (      46 calls)
 
     Parallel routines
     fft_scatt_xy :     19.85s CPU     20.07s WALL (   11847 calls)
     fft_scatt_yz :     30.40s CPU     30.63s WALL (   11847 calls)

     PAW routines
     PAW_pot      :     29.76s CPU     29.94s WALL (      23 calls)
 
     PWSCF        :   5m14.40s CPU   5m22.42s WALL

 
   This run was terminated on:   2:24:41   5Jun2020            

=------------------------------------------------------------------------------=
   JOB DONE.
=------------------------------------------------------------------------------=
