
     Program PWSCF v.6.5 starts on  5Jun2020 at  2:31: 9 

     This program is part of the open-source Quantum ESPRESSO suite
     for quantum simulation of materials; please cite
         "P. Giannozzi et al., J. Phys.:Condens. Matter 21 395502 (2009);
         "P. Giannozzi et al., J. Phys.:Condens. Matter 29 465901 (2017);
          URL http://www.quantum-espresso.org", 
     in publications or presentations arising from this work. More details at
     http://www.quantum-espresso.org/quote

     Parallel version (MPI & OpenMP), running on      24 processor cores
     Number of MPI processes:                24
     Threads/MPI process:                     1

     MPI processes distributed on     1 nodes
     R & G space division:  proc/nbgrp/npool/nimage =      24
     Waiting for input...
     Reading input from standard input

     Current dimensions of program PWSCF are:
     Max number of different atomic species (ntypx) = 10
     Max number of k-points (npk) =  40000
     Max angular momentum in pseudopotentials (lmaxx) =  3
               file Ag.pbe-dn-kjpaw_psl.0.1.UPF: wavefunction(s)  5S 5P 4D renormalized

     gamma-point specific algorithms are used

     Subspace diagonalization in iterative solution of the eigenvalue problem:
     one sub-group per band group will be used
     scalapack distributed-memory algorithm (size of sub-group:  4*  4 procs)

 
     Parallelization info
     --------------------
     sticks:   dense  smooth     PW     G-vecs:    dense   smooth      PW
     Min         722     560    139                71498    48952    6120
     Max         723     562    142                71502    48963    6128
     Sum       17329   13477   3365              1715989  1174959  146965
 


     bravais-lattice index     =            1
     lattice parameter (alat)  =      30.0000  a.u.
     unit-cell volume          =   27000.0000 (a.u.)^3
     number of atoms/cell      =           13
     number of atomic types    =            1
     number of electrons       =       143.00
     number of Kohn-Sham states=           86
     kinetic-energy cutoff     =      47.0000  Ry
     charge density cutoff     =     242.0000  Ry
     convergence threshold     =      1.0E-08
     mixing beta               =       0.7000
     number of iterations used =            8  local-TF  mixing
     Exchange-correlation= SLA PW PBX PBC
                           (   1   4   3   4   0   0   0)

     celldm(1)=  30.000000  celldm(2)=   0.000000  celldm(3)=   0.000000
     celldm(4)=   0.000000  celldm(5)=   0.000000  celldm(6)=   0.000000

     crystal axes: (cart. coord. in units of alat)
               a(1) = (   1.000000   0.000000   0.000000 )  
               a(2) = (   0.000000   1.000000   0.000000 )  
               a(3) = (   0.000000   0.000000   1.000000 )  

     reciprocal axes: (cart. coord. in units 2 pi/alat)
               b(1) = (  1.000000  0.000000  0.000000 )  
               b(2) = (  0.000000  1.000000  0.000000 )  
               b(3) = (  0.000000  0.000000  1.000000 )  


     PseudoPot. # 1 for Ag read from file:
     ../../pseudo/Ag.pbe-dn-kjpaw_psl.0.1.UPF
     MD5 check sum: 2edc915f30f03476250949c796a6a376
     Pseudo is Projector augmented-wave + core cor, Zval = 11.0
     Generated using "atomic" code by A. Dal Corso v.5.0.2 svn rev. 9415
     Shape of augmentation charge: PSQ
     Using radial grid of 1237 points,  6 beta functions with: 
                l(1) =   0
                l(2) =   0
                l(3) =   1
                l(4) =   1
                l(5) =   2
                l(6) =   2
     Q(r) pseudized with 0 coefficients 


     atomic species   valence    mass     pseudopotential
        Ag            11.00   107.87000     Ag( 1.00)

     Starting magnetic structure 
     atomic species   magnetization
        Ag           0.700

     No symmetry found


                                    s                        frac. trans.

      isym =  1     identity                                     

 cryst.   s( 1) = (     1          0          0      )
                  (     0          1          0      )
                  (     0          0          1      )

 cart.    s( 1) = (  1.0000000  0.0000000  0.0000000 )
                  (  0.0000000  1.0000000  0.0000000 )
                  (  0.0000000  0.0000000  1.0000000 )


     point group C_1 (1)    
     there are  1 classes
     the character table:

       E    
A      1.00

     the symmetry operations in each class and the name of the first element:

     E        1
          identity                                               

   Cartesian axes

     site n.     atom                  positions (alat units)
         1           Ag  tau(   1) = (   0.1491734   0.1458890   0.2837596  )
         2           Ag  tau(   2) = (   0.1792846   0.3119907   0.3576786  )
         3           Ag  tau(   3) = (   0.4329009   0.2204880   0.2303197  )
         4           Ag  tau(   4) = (   0.3110329   0.1832594   0.3634954  )
         5           Ag  tau(   5) = (   0.3462969   0.2059790   0.0682615  )
         6           Ag  tau(   6) = (   0.3764058   0.3721183   0.1421461  )
         7           Ag  tau(   7) = (   0.1710023   0.1598862   0.1012802  )
         8           Ag  tau(   8) = (   0.2627924   0.2590014   0.2129455  )
         9           Ag  tau(   9) = (   0.2195907   0.4286912   0.2208285  )
        10           Ag  tau(  10) = (   0.3545741   0.3581333   0.3245700  )
        11           Ag  tau(  11) = (   0.0926946   0.2974737   0.1955799  )
        12           Ag  tau(  12) = (   0.2145339   0.3347544   0.0624028  )
        13           Ag  tau(  13) = (   0.3059095   0.0893008   0.2050735  )

   Crystallographic axes

     site n.     atom                  positions (cryst. coord.)
         1           Ag  tau(   1) = (  0.1491734  0.1458890  0.2837596  )
         2           Ag  tau(   2) = (  0.1792846  0.3119907  0.3576786  )
         3           Ag  tau(   3) = (  0.4329009  0.2204880  0.2303197  )
         4           Ag  tau(   4) = (  0.3110329  0.1832594  0.3634954  )
         5           Ag  tau(   5) = (  0.3462969  0.2059790  0.0682615  )
         6           Ag  tau(   6) = (  0.3764058  0.3721183  0.1421461  )
         7           Ag  tau(   7) = (  0.1710023  0.1598862  0.1012802  )
         8           Ag  tau(   8) = (  0.2627924  0.2590014  0.2129455  )
         9           Ag  tau(   9) = (  0.2195907  0.4286912  0.2208285  )
        10           Ag  tau(  10) = (  0.3545741  0.3581333  0.3245700  )
        11           Ag  tau(  11) = (  0.0926946  0.2974737  0.1955799  )
        12           Ag  tau(  12) = (  0.2145339  0.3347544  0.0624028  )
        13           Ag  tau(  13) = (  0.3059095  0.0893008  0.2050735  )

     number of k points=     1  Fermi-Dirac smearing, width (Ry)=  0.0007
                       cart. coord. in units 2pi/alat
        k(    1) = (   0.0000000   0.0000000   0.0000000), wk =   1.0000000

                       cryst. coord.
        k(    1) = (   0.0000000   0.0000000   0.0000000), wk =   1.0000000

     Dense  grid:   857995 G-vectors     FFT dimensions: ( 150, 150, 150)

     Smooth grid:   587480 G-vectors     FFT dimensions: ( 135, 135, 135)

     Dynamical RAM for                 wfc:       4.02 MB

     Dynamical RAM for     wfc (w. buffer):      12.05 MB

     Dynamical RAM for           str. fact:       0.55 MB

     Dynamical RAM for           local pot:       0.00 MB

     Dynamical RAM for          nlocal pot:      10.93 MB

     Dynamical RAM for                qrad:       5.95 MB

     Dynamical RAM for          rho,v,vnew:      10.48 MB

     Dynamical RAM for               rhoin:       3.49 MB

     Dynamical RAM for            rho*nmix:      17.46 MB

     Dynamical RAM for           G-vectors:       2.23 MB

     Dynamical RAM for          h,s,v(r/c):       0.17 MB

     Dynamical RAM for          <psi|beta>:       0.15 MB

     Dynamical RAM for                 psi:      16.06 MB

     Dynamical RAM for                hpsi:      16.06 MB

     Dynamical RAM for                spsi:      16.06 MB

     Dynamical RAM for      wfcinit/wfcrot:      11.24 MB

     Dynamical RAM for           addusdens:     109.10 MB

     Estimated static dynamical RAM per process >      71.44 MB

     Estimated max dynamical RAM per process >     180.54 MB

     Estimated total dynamical RAM >       4.23 GB
     Generating pointlists ...
     new r_m :   0.0723 (alat units)  2.1687 (a.u.) for type    1

     Check: negative core charge=   -0.000006

     Initial potential from superposition of free atoms

     starting charge  142.99482, renormalised to  143.00000
     Starting wfcs are  117 randomized atomic wfcs
     Checking if some PAW data can be deallocated... 

     total cpu time spent up to now is       13.7 secs

     Self-consistent Calculation

     iteration #  1     ecut=    47.00 Ry     beta= 0.70
     Davidson diagonalization with overlap
     ethr =  1.00E-02,  avg # of iterations =  3.0

     total cpu time spent up to now is       34.5 secs

     total energy              =   -4617.25734699 Ry
     Harris-Foulkes estimate   =   -4610.33257543 Ry
     estimated scf accuracy    <       7.33884776 Ry

     total magnetization       =     5.00 Bohr mag/cell
     absolute magnetization    =     5.00 Bohr mag/cell

     iteration #  2     ecut=    47.00 Ry     beta= 0.70
     Davidson diagonalization with overlap
     ethr =  5.13E-03,  avg # of iterations =  1.0

     total cpu time spent up to now is       53.6 secs

     total energy              =   -4617.99613865 Ry
     Harris-Foulkes estimate   =   -4617.36089117 Ry
     estimated scf accuracy    <       0.96182178 Ry

     total magnetization       =     5.00 Bohr mag/cell
     absolute magnetization    =     5.02 Bohr mag/cell

     iteration #  3     ecut=    47.00 Ry     beta= 0.70
     Davidson diagonalization with overlap
     ethr =  6.73E-04,  avg # of iterations =  2.5

     total cpu time spent up to now is       73.6 secs

     total energy              =   -4618.05547485 Ry
     Harris-Foulkes estimate   =   -4618.06752775 Ry
     estimated scf accuracy    <       0.07864652 Ry

     total magnetization       =     5.00 Bohr mag/cell
     absolute magnetization    =     5.04 Bohr mag/cell

     iteration #  4     ecut=    47.00 Ry     beta= 0.70
     Davidson diagonalization with overlap
     ethr =  5.50E-05,  avg # of iterations =  9.0

     total cpu time spent up to now is      100.7 secs

     total energy              =   -4618.06988460 Ry
     Harris-Foulkes estimate   =   -4618.07678935 Ry
     estimated scf accuracy    <       0.03357123 Ry

     total magnetization       =     5.00 Bohr mag/cell
     absolute magnetization    =     5.12 Bohr mag/cell

     iteration #  5     ecut=    47.00 Ry     beta= 0.70
     Davidson diagonalization with overlap
     ethr =  2.35E-05,  avg # of iterations =  2.5

     total cpu time spent up to now is      120.4 secs

     total energy              =   -4618.06651133 Ry
     Harris-Foulkes estimate   =   -4618.07173423 Ry
     estimated scf accuracy    <       0.01803318 Ry

     total magnetization       =     5.00 Bohr mag/cell
     absolute magnetization    =     5.18 Bohr mag/cell

     iteration #  6     ecut=    47.00 Ry     beta= 0.70
     Davidson diagonalization with overlap
     c_bands:  1 eigenvalues not converged
     ethr =  1.26E-05,  avg # of iterations = 11.5

     total cpu time spent up to now is      143.1 secs

     total energy              =   -4618.06686009 Ry
     Harris-Foulkes estimate   =   -4618.06763507 Ry
     estimated scf accuracy    <       0.01034079 Ry

     total magnetization       =     5.00 Bohr mag/cell
     absolute magnetization    =     5.24 Bohr mag/cell

     iteration #  7     ecut=    47.00 Ry     beta= 0.70
     Davidson diagonalization with overlap
     c_bands:  1 eigenvalues not converged
     ethr =  7.23E-06,  avg # of iterations = 13.5

     total cpu time spent up to now is      166.7 secs

     total energy              =   -4618.06577812 Ry
     Harris-Foulkes estimate   =   -4618.06759933 Ry
     estimated scf accuracy    <       0.00540133 Ry

     total magnetization       =     5.00 Bohr mag/cell
     absolute magnetization    =     5.21 Bohr mag/cell

     iteration #  8     ecut=    47.00 Ry     beta= 0.70
     Davidson diagonalization with overlap
     ethr =  3.78E-06,  avg # of iterations =  9.0

     total cpu time spent up to now is      188.3 secs

     total energy              =   -4618.06709163 Ry
     Harris-Foulkes estimate   =   -4618.06599873 Ry
     estimated scf accuracy    <       0.00316831 Ry

     total magnetization       =     5.00 Bohr mag/cell
     absolute magnetization    =     5.21 Bohr mag/cell

     iteration #  9     ecut=    47.00 Ry     beta= 0.70
     Davidson diagonalization with overlap
     ethr =  2.22E-06,  avg # of iterations =  7.5

     total cpu time spent up to now is      211.4 secs

     total energy              =   -4618.06805010 Ry
     Harris-Foulkes estimate   =   -4618.06742157 Ry
     estimated scf accuracy    <       0.00149937 Ry

     total magnetization       =     5.00 Bohr mag/cell
     absolute magnetization    =     5.22 Bohr mag/cell

     iteration # 10     ecut=    47.00 Ry     beta= 0.70
     Davidson diagonalization with overlap
     ethr =  1.05E-06,  avg # of iterations =  4.0

     total cpu time spent up to now is      232.0 secs

     total energy              =   -4618.06884053 Ry
     Harris-Foulkes estimate   =   -4618.06812504 Ry
     estimated scf accuracy    <       0.00078852 Ry

     total magnetization       =     5.00 Bohr mag/cell
     absolute magnetization    =     5.20 Bohr mag/cell

     iteration # 11     ecut=    47.00 Ry     beta= 0.70
     Davidson diagonalization with overlap
     ethr =  5.51E-07,  avg # of iterations =  5.0

     total cpu time spent up to now is      253.6 secs

     total energy              =   -4618.06902899 Ry
     Harris-Foulkes estimate   =   -4618.06892887 Ry
     estimated scf accuracy    <       0.00056522 Ry

     total magnetization       =     5.00 Bohr mag/cell
     absolute magnetization    =     5.21 Bohr mag/cell

     iteration # 12     ecut=    47.00 Ry     beta= 0.70
     Davidson diagonalization with overlap
     ethr =  3.95E-07,  avg # of iterations =  2.0

     total cpu time spent up to now is      273.3 secs

     total energy              =   -4618.06911213 Ry
     Harris-Foulkes estimate   =   -4618.06905292 Ry
     estimated scf accuracy    <       0.00031940 Ry

     total magnetization       =     5.00 Bohr mag/cell
     absolute magnetization    =     5.21 Bohr mag/cell

     iteration # 13     ecut=    47.00 Ry     beta= 0.70
     Davidson diagonalization with overlap
     ethr =  2.23E-07,  avg # of iterations =  4.5

     total cpu time spent up to now is      295.5 secs

     total energy              =   -4618.06914842 Ry
     Harris-Foulkes estimate   =   -4618.06917844 Ry
     estimated scf accuracy    <       0.00016110 Ry

     total magnetization       =     5.00 Bohr mag/cell
     absolute magnetization    =     5.21 Bohr mag/cell

     iteration # 14     ecut=    47.00 Ry     beta= 0.70
     Davidson diagonalization with overlap
     ethr =  1.13E-07,  avg # of iterations =  2.0

     total cpu time spent up to now is      315.3 secs

     total energy              =   -4618.06930944 Ry
     Harris-Foulkes estimate   =   -4618.06916043 Ry
     estimated scf accuracy    <       0.00005548 Ry

     total magnetization       =     5.00 Bohr mag/cell
     absolute magnetization    =     5.21 Bohr mag/cell

     iteration # 15     ecut=    47.00 Ry     beta= 0.70
     Davidson diagonalization with overlap
     ethr =  3.88E-08,  avg # of iterations =  5.0

     total cpu time spent up to now is      336.9 secs

     total energy              =   -4618.06932960 Ry
     Harris-Foulkes estimate   =   -4618.06931803 Ry
     estimated scf accuracy    <       0.00002208 Ry

     total magnetization       =     5.00 Bohr mag/cell
     absolute magnetization    =     5.21 Bohr mag/cell

     iteration # 16     ecut=    47.00 Ry     beta= 0.70
     Davidson diagonalization with overlap
     ethr =  1.54E-08,  avg # of iterations =  1.5

     total cpu time spent up to now is      356.4 secs

     total energy              =   -4618.06934038 Ry
     Harris-Foulkes estimate   =   -4618.06933088 Ry
     estimated scf accuracy    <       0.00001068 Ry

     total magnetization       =     5.00 Bohr mag/cell
     absolute magnetization    =     5.21 Bohr mag/cell

     iteration # 17     ecut=    47.00 Ry     beta= 0.70
     Davidson diagonalization with overlap
     ethr =  7.47E-09,  avg # of iterations =  2.5

     total cpu time spent up to now is      376.5 secs

     total energy              =   -4618.06933281 Ry
     Harris-Foulkes estimate   =   -4618.06934082 Ry
     estimated scf accuracy    <       0.00000455 Ry

     total magnetization       =     5.00 Bohr mag/cell
     absolute magnetization    =     5.21 Bohr mag/cell

     iteration # 18     ecut=    47.00 Ry     beta= 0.70
     Davidson diagonalization with overlap
     ethr =  3.18E-09,  avg # of iterations =  3.0

     total cpu time spent up to now is      397.2 secs

     total energy              =   -4618.06933507 Ry
     Harris-Foulkes estimate   =   -4618.06933319 Ry
     estimated scf accuracy    <       0.00000102 Ry

     total magnetization       =     5.00 Bohr mag/cell
     absolute magnetization    =     5.21 Bohr mag/cell

     iteration # 19     ecut=    47.00 Ry     beta= 0.70
     Davidson diagonalization with overlap
     ethr =  7.15E-10,  avg # of iterations =  2.5

     total cpu time spent up to now is      417.7 secs

     total energy              =   -4618.06933725 Ry
     Harris-Foulkes estimate   =   -4618.06933517 Ry
     estimated scf accuracy    <       0.00000035 Ry

     total magnetization       =     5.00 Bohr mag/cell
     absolute magnetization    =     5.21 Bohr mag/cell

     iteration # 20     ecut=    47.00 Ry     beta= 0.70
     Davidson diagonalization with overlap
     ethr =  2.46E-10,  avg # of iterations =  2.5

     total cpu time spent up to now is      438.0 secs

     total energy              =   -4618.06933801 Ry
     Harris-Foulkes estimate   =   -4618.06933729 Ry
     estimated scf accuracy    <       0.00000008 Ry

     total magnetization       =     5.00 Bohr mag/cell
     absolute magnetization    =     5.21 Bohr mag/cell

     iteration # 21     ecut=    47.00 Ry     beta= 0.70
     Davidson diagonalization with overlap
     ethr =  5.91E-11,  avg # of iterations =  3.0

     total cpu time spent up to now is      458.3 secs

     total energy              =   -4618.06933833 Ry
     Harris-Foulkes estimate   =   -4618.06933801 Ry
     estimated scf accuracy    <       0.00000003 Ry

     total magnetization       =     5.00 Bohr mag/cell
     absolute magnetization    =     5.21 Bohr mag/cell

     iteration # 22     ecut=    47.00 Ry     beta= 0.70
     Davidson diagonalization with overlap
     ethr =  2.24E-11,  avg # of iterations =  3.5
 
     Magnetic moment per site:
     atom:    1    charge:    9.4180    magn:    0.1129    constr:    0.0000
     atom:    2    charge:    9.4178    magn:    0.1129    constr:    0.0000
     atom:    3    charge:    9.4177    magn:    0.1128    constr:    0.0000
     atom:    4    charge:    9.4184    magn:    0.1129    constr:    0.0000
     atom:    5    charge:    9.4177    magn:    0.1128    constr:    0.0000
     atom:    6    charge:    9.4181    magn:    0.1129    constr:    0.0000
     atom:    7    charge:    9.4178    magn:    0.1129    constr:    0.0000
     atom:    8    charge:    9.5353    magn:    0.1425    constr:    0.0000
     atom:    9    charge:    9.4176    magn:    0.1128    constr:    0.0000
     atom:   10    charge:    9.4180    magn:    0.1129    constr:    0.0000
     atom:   11    charge:    9.4179    magn:    0.1128    constr:    0.0000
     atom:   12    charge:    9.4178    magn:    0.1129    constr:    0.0000
     atom:   13    charge:    9.4179    magn:    0.1128    constr:    0.0000

     total cpu time spent up to now is      477.4 secs

     End of self-consistent calculation

 ------ SPIN UP ------------


          k = 0.0000 0.0000 0.0000 ( 73483 PWs)   bands (ev):

    -9.3850  -8.9972  -8.9970  -8.9968  -8.9965  -8.9963  -8.0264  -8.0261
    -8.0259  -7.8818  -7.8814  -7.8811  -7.8808  -7.8412  -7.8410  -7.8409
    -7.7637  -7.6783  -7.6779  -7.6777  -7.6776  -7.4597  -7.4595  -7.4591
    -7.4585  -7.4582  -7.4049  -7.4043  -7.4041  -7.1106  -7.1105  -7.1098
    -7.1092  -7.1088  -7.0443  -7.0440  -7.0436  -7.0429  -7.0423  -6.6552
    -6.6552  -6.6552  -6.5836  -6.5834  -6.5831  -6.5829  -6.4151  -6.4150
    -6.4149  -6.4148  -6.4148  -6.3803  -6.3800  -6.3798  -6.3797  -6.2918
    -6.2917  -6.2917  -6.2612  -6.2609  -6.2608  -6.2606  -6.2604  -6.1260
    -6.1259  -6.1257  -5.4127  -5.4123  -5.4122  -3.2325  -3.2319  -3.2316
    -3.2307  -3.2302  -2.5135  -1.1773  -1.1758  -1.1741  -0.8071  -0.8067
    -0.8059  -0.8044  -0.7699  -0.7685  -0.7678   0.1981

     occupation numbers 
     1.0000   1.0000   1.0000   1.0000   1.0000   1.0000   1.0000   1.0000
     1.0000   1.0000   1.0000   1.0000   1.0000   1.0000   1.0000   1.0000
     1.0000   1.0000   1.0000   1.0000   1.0000   1.0000   1.0000   1.0000
     1.0000   1.0000   1.0000   1.0000   1.0000   1.0000   1.0000   1.0000
     1.0000   1.0000   1.0000   1.0000   1.0000   1.0000   1.0000   1.0000
     1.0000   1.0000   1.0000   1.0000   1.0000   1.0000   1.0000   1.0000
     1.0000   1.0000   1.0000   1.0000   1.0000   1.0000   1.0000   1.0000
     1.0000   1.0000   1.0000   1.0000   1.0000   1.0000   1.0000   1.0000
     1.0000   1.0000   1.0000   1.0000   1.0000   1.0000   1.0000   1.0000
     1.0000   1.0000   0.0000   0.0000   0.0000   0.0000   0.0000   0.0000
     0.0000   0.0000   0.0000   0.0000   0.0000   0.0000

 ------ SPIN DOWN ----------


          k = 0.0000 0.0000 0.0000 ( 73483 PWs)   bands (ev):

    -9.3227  -8.9103  -8.9101  -8.9098  -8.9096  -8.9094  -7.9369  -7.9366
    -7.9365  -7.7938  -7.7935  -7.7932  -7.7928  -7.7085  -7.7083  -7.7082
    -7.5678  -7.5674  -7.5672  -7.5671  -7.5131  -7.3502  -7.3500  -7.3497
    -7.3491  -7.3488  -7.2618  -7.2612  -7.2609  -7.0168  -7.0167  -7.0161
    -7.0155  -7.0151  -6.9561  -6.9558  -6.9554  -6.9547  -6.9541  -6.5794
    -6.5793  -6.5793  -6.4875  -6.4872  -6.4870  -6.4868  -6.3266  -6.3265
    -6.3264  -6.3263  -6.3262  -6.2894  -6.2891  -6.2889  -6.2888  -6.2089
    -6.2089  -6.2088  -6.1651  -6.1648  -6.1647  -6.1645  -6.1643  -6.0591
    -6.0590  -6.0588  -5.1388  -5.1385  -5.1383  -2.8139  -2.8133  -2.8127
    -2.8118  -2.8115  -2.1909  -0.7787  -0.7766  -0.7748  -0.4838  -0.4827
    -0.4823  -0.3623  -0.3613  -0.3580  -0.3553   0.2704

     occupation numbers 
     1.0000   1.0000   1.0000   1.0000   1.0000   1.0000   1.0000   1.0000
     1.0000   1.0000   1.0000   1.0000   1.0000   1.0000   1.0000   1.0000
     1.0000   1.0000   1.0000   1.0000   1.0000   1.0000   1.0000   1.0000
     1.0000   1.0000   1.0000   1.0000   1.0000   1.0000   1.0000   1.0000
     1.0000   1.0000   1.0000   1.0000   1.0000   1.0000   1.0000   1.0000
     1.0000   1.0000   1.0000   1.0000   1.0000   1.0000   1.0000   1.0000
     1.0000   1.0000   1.0000   1.0000   1.0000   1.0000   1.0000   1.0000
     1.0000   1.0000   1.0000   1.0000   1.0000   1.0000   1.0000   1.0000
     1.0000   1.0000   1.0000   1.0000   1.0000   0.0000   0.0000   0.0000
     0.0000   0.0000   0.0000   0.0000   0.0000   0.0000   0.0000   0.0000
     0.0000   0.0000   0.0000   0.0000   0.0000   0.0000

     the Fermi energy is    -3.0220 ev

!    total energy              =   -4618.06933795 Ry
     Harris-Foulkes estimate   =   -4618.06933834 Ry
     estimated scf accuracy    <          9.4E-09 Ry

     total all-electron energy =   -138218.628059 Ry

     The total energy is the sum of the following terms:

     one-electron contribution =   -3607.96094728 Ry
     hartree contribution      =    1903.30594413 Ry
     xc contribution           =    -462.98427647 Ry
     ewald contribution        =     962.01017866 Ry
     one-center paw contrib.   =   -3412.44023699 Ry
      -> PAW hartree energy AE =      66.87202323 Ry
      -> PAW hartree energy PS =     -66.72396364 Ry
      -> PAW xc energy AE      =    -297.86698295 Ry
      -> PAW xc energy PS      =      35.22464823 Ry
      -> total E_H with PAW    =    1903.45400372 Ry
      -> total E_XC with PAW   =    -725.62661118 Ry
     smearing contrib. (-TS)   =      -0.00000000 Ry

     total magnetization       =     5.00 Bohr mag/cell
     absolute magnetization    =     5.21 Bohr mag/cell

     convergence has been achieved in  22 iterations

     Writing output data file ./tmp/ag13.save/
 
     init_run     :     11.38s CPU     11.83s WALL (       1 calls)
     electrons    :    453.75s CPU    463.86s WALL (       1 calls)

     Called by init_run:
     wfcinit      :      5.65s CPU      5.77s WALL (       1 calls)
     wfcinit:atom :      0.03s CPU      0.05s WALL (       2 calls)
     wfcinit:wfcr :      5.51s CPU      5.58s WALL (       2 calls)
     potinit      :      2.78s CPU      2.92s WALL (       1 calls)
     hinit0       :      0.70s CPU      0.72s WALL (       1 calls)

     Called by electrons:
     c_bands      :    240.97s CPU    244.86s WALL (      22 calls)
     sum_band     :     98.03s CPU    100.92s WALL (      22 calls)
     v_of_rho     :     25.67s CPU     25.98s WALL (      23 calls)
     v_h          :      1.74s CPU      1.75s WALL (      23 calls)
     v_xc         :     23.93s CPU     24.24s WALL (      23 calls)
     newd         :     27.40s CPU     29.70s WALL (      23 calls)
     PAW_pot      :     29.78s CPU     30.01s WALL (      23 calls)
     mix_rho      :     29.75s CPU     30.22s WALL (      22 calls)

     Called by c_bands:
     init_us_2    :      1.73s CPU      1.75s WALL (      90 calls)
     regterg      :    231.89s CPU    235.71s WALL (      44 calls)

     Called by sum_band:
     sum_band:bec :      0.03s CPU      0.03s WALL (      44 calls)
     addusdens    :     49.11s CPU     51.67s WALL (      22 calls)

     Called by *egterg:
     h_psi        :    180.29s CPU    181.53s WALL (     247 calls)
     s_psi        :     14.46s CPU     14.50s WALL (     247 calls)
     g_psi        :      0.45s CPU      0.46s WALL (     201 calls)
     rdiaghg      :      6.19s CPU      6.57s WALL (     245 calls)
     regterg:over :     12.36s CPU     12.39s WALL (     201 calls)
     regterg:upda :     11.47s CPU     11.54s WALL (     201 calls)
     regterg:last :      3.86s CPU      3.87s WALL (      44 calls)
     rdiaghg:chol :      0.22s CPU      0.22s WALL (     245 calls)
     rdiaghg:inve :      0.17s CPU      0.17s WALL (     245 calls)
     rdiaghg:para :      0.51s CPU      0.52s WALL (     490 calls)

     Called by h_psi:
     h_psi:calbec :     10.56s CPU     10.60s WALL (     247 calls)
     vloc_psi     :    154.48s CPU    155.64s WALL (     247 calls)
     add_vuspsi   :     14.24s CPU     14.28s WALL (     247 calls)

     General routines
     calbec       :     14.22s CPU     14.26s WALL (     291 calls)
     fft          :     26.45s CPU     26.64s WALL (     476 calls)
     ffts         :     19.23s CPU     19.35s WALL (     531 calls)
     fftw         :    148.51s CPU    149.64s WALL (   10646 calls)
     interpolate  :      4.95s CPU      5.00s WALL (      46 calls)
 
     Parallel routines
     fft_scatt_xy :     35.10s CPU     35.39s WALL (   11653 calls)
     fft_scatt_yz :     48.61s CPU     48.96s WALL (   11653 calls)

     PAW routines
     PAW_pot      :     29.78s CPU     30.01s WALL (      23 calls)
 
     PWSCF        :   7m47.24s CPU   7m58.57s WALL

 
   This run was terminated on:   2:39: 8   5Jun2020            

=------------------------------------------------------------------------------=
   JOB DONE.
=------------------------------------------------------------------------------=
