
     Program PWSCF v.6.5 starts on  3Jan2021 at 21:54:24 

     This program is part of the open-source Quantum ESPRESSO suite
     for quantum simulation of materials; please cite
         "P. Giannozzi et al., J. Phys.:Condens. Matter 21 395502 (2009);
         "P. Giannozzi et al., J. Phys.:Condens. Matter 29 465901 (2017);
          URL http://www.quantum-espresso.org", 
     in publications or presentations arising from this work. More details at
     http://www.quantum-espresso.org/quote

     Parallel version (MPI & OpenMP), running on      24 processor cores
     Number of MPI processes:                24
     Threads/MPI process:                     1

     MPI processes distributed on     1 nodes
     R & G space division:  proc/nbgrp/npool/nimage =      24
     Waiting for input...
     Reading input from standard input

     Current dimensions of program PWSCF are:
     Max number of different atomic species (ntypx) = 10
     Max number of k-points (npk) =  40000
     Max angular momentum in pseudopotentials (lmaxx) =  3
               file Ag.pbe-dn-kjpaw_psl.0.1.UPF: wavefunction(s)  5S 5P 4D renormalized
     Message from routine set_cutoff:
     ecutrho < 4*ecutwfc, are you sure?

     gamma-point specific algorithms are used

     Subspace diagonalization in iterative solution of the eigenvalue problem:
     one sub-group per band group will be used
     scalapack distributed-memory algorithm (size of sub-group:  4*  4 procs)

 
     Parallelization info
     --------------------
     sticks:   dense  smooth     PW     G-vecs:    dense   smooth      PW
     Min         268     268    134                16212    16212    5730
     Max         270     270    138                16218    16218    5734
     Sum        6461    6461   3233               389159   389159  137545
 


     bravais-lattice index     =            1
     lattice parameter (alat)  =      30.0000  a.u.
     unit-cell volume          =   27000.0000 (a.u.)^3
     number of atoms/cell      =           13
     number of atomic types    =            1
     number of electrons       =       143.00
     number of Kohn-Sham states=           86
     kinetic-energy cutoff     =      45.0000  Ry
     charge density cutoff     =      90.0000  Ry
     convergence threshold     =      1.0E-08
     mixing beta               =       0.7000
     number of iterations used =            8  local-TF  mixing
     Exchange-correlation= SLA PW PBX PBC
                           (   1   4   3   4   0   0   0)

     celldm(1)=  30.000000  celldm(2)=   0.000000  celldm(3)=   0.000000
     celldm(4)=   0.000000  celldm(5)=   0.000000  celldm(6)=   0.000000

     crystal axes: (cart. coord. in units of alat)
               a(1) = (   1.000000   0.000000   0.000000 )  
               a(2) = (   0.000000   1.000000   0.000000 )  
               a(3) = (   0.000000   0.000000   1.000000 )  

     reciprocal axes: (cart. coord. in units 2 pi/alat)
               b(1) = (  1.000000  0.000000  0.000000 )  
               b(2) = (  0.000000  1.000000  0.000000 )  
               b(3) = (  0.000000  0.000000  1.000000 )  


     PseudoPot. # 1 for Ag read from file:
     ../../pseudo/Ag.pbe-dn-kjpaw_psl.0.1.UPF
     MD5 check sum: 2edc915f30f03476250949c796a6a376
     Pseudo is Projector augmented-wave + core cor, Zval = 11.0
     Generated using "atomic" code by A. Dal Corso v.5.0.2 svn rev. 9415
     Shape of augmentation charge: PSQ
     Using radial grid of 1237 points,  6 beta functions with: 
                l(1) =   0
                l(2) =   0
                l(3) =   1
                l(4) =   1
                l(5) =   2
                l(6) =   2
     Q(r) pseudized with 0 coefficients 


     atomic species   valence    mass     pseudopotential
        Ag            11.00   107.87000     Ag( 1.00)

     Starting magnetic structure 
     atomic species   magnetization
        Ag           0.700

     No symmetry found


                                    s                        frac. trans.

      isym =  1     identity                                     

 cryst.   s( 1) = (     1          0          0      )
                  (     0          1          0      )
                  (     0          0          1      )

 cart.    s( 1) = (  1.0000000  0.0000000  0.0000000 )
                  (  0.0000000  1.0000000  0.0000000 )
                  (  0.0000000  0.0000000  1.0000000 )


     point group C_1 (1)    
     there are  1 classes
     the character table:

       E    
A      1.00

     the symmetry operations in each class and the name of the first element:

     E        1
          identity                                               

   Cartesian axes

     site n.     atom                  positions (alat units)
         1           Ag  tau(   1) = (   0.1491734   0.1458890   0.2837596  )
         2           Ag  tau(   2) = (   0.1792846   0.3119907   0.3576786  )
         3           Ag  tau(   3) = (   0.4329009   0.2204880   0.2303197  )
         4           Ag  tau(   4) = (   0.3110329   0.1832594   0.3634954  )
         5           Ag  tau(   5) = (   0.3462969   0.2059790   0.0682615  )
         6           Ag  tau(   6) = (   0.3764058   0.3721183   0.1421461  )
         7           Ag  tau(   7) = (   0.1710023   0.1598862   0.1012802  )
         8           Ag  tau(   8) = (   0.2627924   0.2590014   0.2129455  )
         9           Ag  tau(   9) = (   0.2195907   0.4286912   0.2208285  )
        10           Ag  tau(  10) = (   0.3545741   0.3581333   0.3245700  )
        11           Ag  tau(  11) = (   0.0926946   0.2974737   0.1955799  )
        12           Ag  tau(  12) = (   0.2145339   0.3347544   0.0624028  )
        13           Ag  tau(  13) = (   0.3059095   0.0893008   0.2050735  )

   Crystallographic axes

     site n.     atom                  positions (cryst. coord.)
         1           Ag  tau(   1) = (  0.1491734  0.1458890  0.2837596  )
         2           Ag  tau(   2) = (  0.1792846  0.3119907  0.3576786  )
         3           Ag  tau(   3) = (  0.4329009  0.2204880  0.2303197  )
         4           Ag  tau(   4) = (  0.3110329  0.1832594  0.3634954  )
         5           Ag  tau(   5) = (  0.3462969  0.2059790  0.0682615  )
         6           Ag  tau(   6) = (  0.3764058  0.3721183  0.1421461  )
         7           Ag  tau(   7) = (  0.1710023  0.1598862  0.1012802  )
         8           Ag  tau(   8) = (  0.2627924  0.2590014  0.2129455  )
         9           Ag  tau(   9) = (  0.2195907  0.4286912  0.2208285  )
        10           Ag  tau(  10) = (  0.3545741  0.3581333  0.3245700  )
        11           Ag  tau(  11) = (  0.0926946  0.2974737  0.1955799  )
        12           Ag  tau(  12) = (  0.2145339  0.3347544  0.0624028  )
        13           Ag  tau(  13) = (  0.3059095  0.0893008  0.2050735  )

     number of k points=     1  Fermi-Dirac smearing, width (Ry)=  0.0007
                       cart. coord. in units 2pi/alat
        k(    1) = (   0.0000000   0.0000000   0.0000000), wk =   1.0000000

                       cryst. coord.
        k(    1) = (   0.0000000   0.0000000   0.0000000), wk =   1.0000000

     Dense  grid:   194580 G-vectors     FFT dimensions: (  96,  96,  96)

     Dynamical RAM for                 wfc:       3.76 MB

     Dynamical RAM for     wfc (w. buffer):      11.29 MB

     Dynamical RAM for           str. fact:       0.12 MB

     Dynamical RAM for           local pot:       0.00 MB

     Dynamical RAM for          nlocal pot:      10.24 MB

     Dynamical RAM for                qrad:       3.63 MB

     Dynamical RAM for          rho,v,vnew:       2.43 MB

     Dynamical RAM for               rhoin:       0.81 MB

     Dynamical RAM for            rho*nmix:       3.96 MB

     Dynamical RAM for           G-vectors:       0.53 MB

     Dynamical RAM for          h,s,v(r/c):       0.17 MB

     Dynamical RAM for          <psi|beta>:       0.15 MB

     Dynamical RAM for                 psi:      15.05 MB

     Dynamical RAM for                hpsi:      15.05 MB

     Dynamical RAM for                spsi:      15.05 MB

     Dynamical RAM for      wfcinit/wfcrot:      10.55 MB

     Dynamical RAM for           addusdens:      24.74 MB

     Estimated static dynamical RAM per process >      34.94 MB

     Estimated max dynamical RAM per process >      80.41 MB

     Estimated total dynamical RAM >       1.88 GB
     Generating pointlists ...
     new r_m :   0.0723 (alat units)  2.1687 (a.u.) for type    1

     Check: negative core charge=   -0.000007

     Initial potential from superposition of free atoms

     starting charge  142.99482, renormalised to  143.00000
     Starting wfcs are  117 randomized atomic wfcs
     Checking if some PAW data can be deallocated... 

     total cpu time spent up to now is        7.1 secs

     Self-consistent Calculation

     iteration #  1     ecut=    45.00 Ry     beta= 0.70
     Davidson diagonalization with overlap
     ethr =  1.00E-02,  avg # of iterations =  3.5

     total cpu time spent up to now is       16.7 secs

     total energy              =   -4617.24906952 Ry
     Harris-Foulkes estimate   =   -4610.32736903 Ry
     estimated scf accuracy    <       7.34457785 Ry

     total magnetization       =     5.00 Bohr mag/cell
     absolute magnetization    =     5.01 Bohr mag/cell

     iteration #  2     ecut=    45.00 Ry     beta= 0.70
     Davidson diagonalization with overlap
     ethr =  5.14E-03,  avg # of iterations =  1.0

     total cpu time spent up to now is       25.0 secs

     total energy              =   -4617.98863099 Ry
     Harris-Foulkes estimate   =   -4617.35269252 Ry
     estimated scf accuracy    <       0.96287654 Ry

     total magnetization       =     5.00 Bohr mag/cell
     absolute magnetization    =     5.03 Bohr mag/cell

     iteration #  3     ecut=    45.00 Ry     beta= 0.70
     Davidson diagonalization with overlap
     ethr =  6.73E-04,  avg # of iterations =  2.5

     total cpu time spent up to now is       33.8 secs

     total energy              =   -4618.04663488 Ry
     Harris-Foulkes estimate   =   -4618.05805081 Ry
     estimated scf accuracy    <       0.07903295 Ry

     total magnetization       =     5.00 Bohr mag/cell
     absolute magnetization    =     5.04 Bohr mag/cell

     iteration #  4     ecut=    45.00 Ry     beta= 0.70
     Davidson diagonalization with overlap
     ethr =  5.53E-05,  avg # of iterations = 10.0

     total cpu time spent up to now is       47.6 secs

     total energy              =   -4618.06141982 Ry
     Harris-Foulkes estimate   =   -4618.06890324 Ry
     estimated scf accuracy    <       0.03466247 Ry

     total magnetization       =     5.00 Bohr mag/cell
     absolute magnetization    =     5.12 Bohr mag/cell

     iteration #  5     ecut=    45.00 Ry     beta= 0.70
     Davidson diagonalization with overlap
     ethr =  2.42E-05,  avg # of iterations =  3.0

     total cpu time spent up to now is       56.5 secs

     total energy              =   -4618.05763178 Ry
     Harris-Foulkes estimate   =   -4618.06328996 Ry
     estimated scf accuracy    <       0.01850845 Ry

     total magnetization       =     5.00 Bohr mag/cell
     absolute magnetization    =     5.18 Bohr mag/cell

     iteration #  6     ecut=    45.00 Ry     beta= 0.70
     Davidson diagonalization with overlap
     ethr =  1.29E-05,  avg # of iterations = 19.5

     total cpu time spent up to now is       69.2 secs

     total energy              =   -4618.05787510 Ry
     Harris-Foulkes estimate   =   -4618.05883392 Ry
     estimated scf accuracy    <       0.01041917 Ry

     total magnetization       =     5.00 Bohr mag/cell
     absolute magnetization    =     5.25 Bohr mag/cell

     iteration #  7     ecut=    45.00 Ry     beta= 0.70
     Davidson diagonalization with overlap
     ethr =  7.29E-06,  avg # of iterations =  6.5

     total cpu time spent up to now is       79.4 secs

     total energy              =   -4618.05677729 Ry
     Harris-Foulkes estimate   =   -4618.05858886 Ry
     estimated scf accuracy    <       0.00559405 Ry

     total magnetization       =     5.00 Bohr mag/cell
     absolute magnetization    =     5.21 Bohr mag/cell

     iteration #  8     ecut=    45.00 Ry     beta= 0.70
     Davidson diagonalization with overlap
     ethr =  3.91E-06,  avg # of iterations =  8.0

     total cpu time spent up to now is       89.3 secs

     total energy              =   -4618.05787074 Ry
     Harris-Foulkes estimate   =   -4618.05698347 Ry
     estimated scf accuracy    <       0.00331830 Ry

     total magnetization       =     5.00 Bohr mag/cell
     absolute magnetization    =     5.21 Bohr mag/cell

     iteration #  9     ecut=    45.00 Ry     beta= 0.70
     Davidson diagonalization with overlap
     ethr =  2.32E-06,  avg # of iterations =  7.5

     total cpu time spent up to now is      100.3 secs

     total energy              =   -4618.05880335 Ry
     Harris-Foulkes estimate   =   -4618.05819086 Ry
     estimated scf accuracy    <       0.00155156 Ry

     total magnetization       =     5.00 Bohr mag/cell
     absolute magnetization    =     5.22 Bohr mag/cell

     iteration # 10     ecut=    45.00 Ry     beta= 0.70
     Davidson diagonalization with overlap
     ethr =  1.09E-06,  avg # of iterations =  3.5

     total cpu time spent up to now is      109.6 secs

     total energy              =   -4618.05947674 Ry
     Harris-Foulkes estimate   =   -4618.05887634 Ry
     estimated scf accuracy    <       0.00080450 Ry

     total magnetization       =     5.00 Bohr mag/cell
     absolute magnetization    =     5.20 Bohr mag/cell

     iteration # 11     ecut=    45.00 Ry     beta= 0.70
     Davidson diagonalization with overlap
     ethr =  5.63E-07,  avg # of iterations =  5.0

     total cpu time spent up to now is      119.3 secs

     total energy              =   -4618.05968294 Ry
     Harris-Foulkes estimate   =   -4618.05956136 Ry
     estimated scf accuracy    <       0.00056483 Ry

     total magnetization       =     5.00 Bohr mag/cell
     absolute magnetization    =     5.21 Bohr mag/cell

     iteration # 12     ecut=    45.00 Ry     beta= 0.70
     Davidson diagonalization with overlap
     ethr =  3.95E-07,  avg # of iterations =  2.5

     total cpu time spent up to now is      128.0 secs

     total energy              =   -4618.05977260 Ry
     Harris-Foulkes estimate   =   -4618.05970802 Ry
     estimated scf accuracy    <       0.00032946 Ry

     total magnetization       =     5.00 Bohr mag/cell
     absolute magnetization    =     5.22 Bohr mag/cell

     iteration # 13     ecut=    45.00 Ry     beta= 0.70
     Davidson diagonalization with overlap
     ethr =  2.30E-07,  avg # of iterations =  4.5

     total cpu time spent up to now is      138.3 secs

     total energy              =   -4618.05981142 Ry
     Harris-Foulkes estimate   =   -4618.05985164 Ry
     estimated scf accuracy    <       0.00018579 Ry

     total magnetization       =     5.00 Bohr mag/cell
     absolute magnetization    =     5.21 Bohr mag/cell

     iteration # 14     ecut=    45.00 Ry     beta= 0.70
     Davidson diagonalization with overlap
     ethr =  1.30E-07,  avg # of iterations =  2.0

     total cpu time spent up to now is      147.0 secs

     total energy              =   -4618.05996430 Ry
     Harris-Foulkes estimate   =   -4618.05982534 Ry
     estimated scf accuracy    <       0.00005962 Ry

     total magnetization       =     5.00 Bohr mag/cell
     absolute magnetization    =     5.21 Bohr mag/cell

     iteration # 15     ecut=    45.00 Ry     beta= 0.70
     Davidson diagonalization with overlap
     ethr =  4.17E-08,  avg # of iterations =  4.5

     total cpu time spent up to now is      156.8 secs

     total energy              =   -4618.05998482 Ry
     Harris-Foulkes estimate   =   -4618.05997062 Ry
     estimated scf accuracy    <       0.00001963 Ry

     total magnetization       =     5.00 Bohr mag/cell
     absolute magnetization    =     5.21 Bohr mag/cell

     iteration # 16     ecut=    45.00 Ry     beta= 0.70
     Davidson diagonalization with overlap
     ethr =  1.37E-08,  avg # of iterations =  2.0

     total cpu time spent up to now is      165.3 secs

     total energy              =   -4618.05999619 Ry
     Harris-Foulkes estimate   =   -4618.05998556 Ry
     estimated scf accuracy    <       0.00001072 Ry

     total magnetization       =     5.00 Bohr mag/cell
     absolute magnetization    =     5.21 Bohr mag/cell

     iteration # 17     ecut=    45.00 Ry     beta= 0.70
     Davidson diagonalization with overlap
     ethr =  7.50E-09,  avg # of iterations =  2.5

     total cpu time spent up to now is      174.1 secs

     total energy              =   -4618.05998670 Ry
     Harris-Foulkes estimate   =   -4618.05999559 Ry
     estimated scf accuracy    <       0.00000425 Ry

     total magnetization       =     5.00 Bohr mag/cell
     absolute magnetization    =     5.21 Bohr mag/cell

     iteration # 18     ecut=    45.00 Ry     beta= 0.70
     Davidson diagonalization with overlap
     ethr =  2.97E-09,  avg # of iterations =  2.5

     total cpu time spent up to now is      183.1 secs

     total energy              =   -4618.05999009 Ry
     Harris-Foulkes estimate   =   -4618.05998700 Ry
     estimated scf accuracy    <       0.00000104 Ry

     total magnetization       =     5.00 Bohr mag/cell
     absolute magnetization    =     5.21 Bohr mag/cell

     iteration # 19     ecut=    45.00 Ry     beta= 0.70
     Davidson diagonalization with overlap
     ethr =  7.26E-10,  avg # of iterations =  3.5

     total cpu time spent up to now is      192.7 secs

     total energy              =   -4618.05999244 Ry
     Harris-Foulkes estimate   =   -4618.05999057 Ry
     estimated scf accuracy    <       0.00000035 Ry

     total magnetization       =     5.00 Bohr mag/cell
     absolute magnetization    =     5.21 Bohr mag/cell

     iteration # 20     ecut=    45.00 Ry     beta= 0.70
     Davidson diagonalization with overlap
     ethr =  2.43E-10,  avg # of iterations =  2.5

     total cpu time spent up to now is      201.8 secs

     total energy              =   -4618.05999379 Ry
     Harris-Foulkes estimate   =   -4618.05999256 Ry
     estimated scf accuracy    <       0.00000008 Ry

     total magnetization       =     5.00 Bohr mag/cell
     absolute magnetization    =     5.21 Bohr mag/cell

     iteration # 21     ecut=    45.00 Ry     beta= 0.70
     Davidson diagonalization with overlap
     ethr =  5.90E-11,  avg # of iterations =  3.0

     total cpu time spent up to now is      211.1 secs

     total energy              =   -4618.05999388 Ry
     Harris-Foulkes estimate   =   -4618.05999385 Ry
     estimated scf accuracy    <       0.00000003 Ry

     total magnetization       =     5.00 Bohr mag/cell
     absolute magnetization    =     5.21 Bohr mag/cell

     iteration # 22     ecut=    45.00 Ry     beta= 0.70
     Davidson diagonalization with overlap
     ethr =  2.12E-11,  avg # of iterations =  3.5

     total cpu time spent up to now is      220.5 secs

     total energy              =   -4618.05999339 Ry
     Harris-Foulkes estimate   =   -4618.05999385 Ry
     estimated scf accuracy    <       0.00000001 Ry

     total magnetization       =     5.00 Bohr mag/cell
     absolute magnetization    =     5.21 Bohr mag/cell

     iteration # 23     ecut=    45.00 Ry     beta= 0.70
     Davidson diagonalization with overlap
     ethr =  7.01E-12,  avg # of iterations =  3.5
 
     Magnetic moment per site:
     atom:    1    charge:    9.4167    magn:    0.1127    constr:    0.0000
     atom:    2    charge:    9.4166    magn:    0.1128    constr:    0.0000
     atom:    3    charge:    9.4173    magn:    0.1127    constr:    0.0000
     atom:    4    charge:    9.4170    magn:    0.1128    constr:    0.0000
     atom:    5    charge:    9.4177    magn:    0.1129    constr:    0.0000
     atom:    6    charge:    9.4172    magn:    0.1128    constr:    0.0000
     atom:    7    charge:    9.4185    magn:    0.1129    constr:    0.0000
     atom:    8    charge:    9.5348    magn:    0.1426    constr:    0.0000
     atom:    9    charge:    9.4157    magn:    0.1127    constr:    0.0000
     atom:   10    charge:    9.4167    magn:    0.1128    constr:    0.0000
     atom:   11    charge:    9.4172    magn:    0.1128    constr:    0.0000
     atom:   12    charge:    9.4167    magn:    0.1128    constr:    0.0000
     atom:   13    charge:    9.4185    magn:    0.1129    constr:    0.0000

     total cpu time spent up to now is      229.9 secs

     End of self-consistent calculation

 ------ SPIN UP ------------


          k = 0.0000 0.0000 0.0000 ( 68773 PWs)   bands (ev):

    -9.3766  -8.9886  -8.9884  -8.9882  -8.9878  -8.9876  -8.0182  -8.0179
    -8.0177  -7.8735  -7.8732  -7.8729  -7.8725  -7.8330  -7.8327  -7.8326
    -7.7559  -7.6700  -7.6695  -7.6693  -7.6692  -7.4513  -7.4512  -7.4509
    -7.4502  -7.4499  -7.3966  -7.3961  -7.3958  -7.1024  -7.1022  -7.1015
    -7.1009  -7.1006  -7.0359  -7.0356  -7.0352  -7.0345  -7.0338  -6.6470
    -6.6469  -6.6468  -6.5757  -6.5755  -6.5752  -6.5751  -6.4072  -6.4071
    -6.4069  -6.4069  -6.4067  -6.3720  -6.3717  -6.3715  -6.3713  -6.2838
    -6.2837  -6.2837  -6.2525  -6.2523  -6.2522  -6.2519  -6.2516  -6.1175
    -6.1173  -6.1171  -5.4056  -5.4052  -5.4051  -3.2248  -3.2244  -3.2240
    -3.2232  -3.2227  -2.5017  -1.1659  -1.1642  -1.1627  -0.7966  -0.7959
    -0.7951  -0.7935  -0.7496  -0.7489  -0.7483   0.2059

     occupation numbers 
     1.0000   1.0000   1.0000   1.0000   1.0000   1.0000   1.0000   1.0000
     1.0000   1.0000   1.0000   1.0000   1.0000   1.0000   1.0000   1.0000
     1.0000   1.0000   1.0000   1.0000   1.0000   1.0000   1.0000   1.0000
     1.0000   1.0000   1.0000   1.0000   1.0000   1.0000   1.0000   1.0000
     1.0000   1.0000   1.0000   1.0000   1.0000   1.0000   1.0000   1.0000
     1.0000   1.0000   1.0000   1.0000   1.0000   1.0000   1.0000   1.0000
     1.0000   1.0000   1.0000   1.0000   1.0000   1.0000   1.0000   1.0000
     1.0000   1.0000   1.0000   1.0000   1.0000   1.0000   1.0000   1.0000
     1.0000   1.0000   1.0000   1.0000   1.0000   1.0000   1.0000   1.0000
     1.0000   1.0000   0.0000   0.0000   0.0000   0.0000   0.0000   0.0000
     0.0000   0.0000   0.0000   0.0000   0.0000   0.0000

 ------ SPIN DOWN ----------


          k = 0.0000 0.0000 0.0000 ( 68773 PWs)   bands (ev):

    -9.3145  -8.9016  -8.9015  -8.9011  -8.9008  -8.9006  -7.9287  -7.9283
    -7.9282  -7.7852  -7.7848  -7.7846  -7.7841  -7.7004  -7.7001  -7.7000
    -7.5595  -7.5590  -7.5588  -7.5588  -7.5052  -7.3420  -7.3418  -7.3415
    -7.3410  -7.3406  -7.2538  -7.2532  -7.2529  -7.0084  -7.0083  -7.0076
    -7.0071  -7.0066  -6.9478  -6.9474  -6.9471  -6.9464  -6.9458  -6.5716
    -6.5716  -6.5715  -6.4790  -6.4786  -6.4785  -6.4782  -6.3180  -6.3179
    -6.3178  -6.3177  -6.3177  -6.2811  -6.2809  -6.2806  -6.2805  -6.2002
    -6.2002  -6.2000  -6.1566  -6.1564  -6.1563  -6.1560  -6.1558  -6.0508
    -6.0507  -6.0505  -5.1297  -5.1294  -5.1292  -2.8021  -2.8015  -2.8011
    -2.8001  -2.7998  -2.1738  -0.7625  -0.7603  -0.7588  -0.4617  -0.4607
    -0.4597  -0.3468  -0.3452  -0.3421  -0.3394   0.2714

     occupation numbers 
     1.0000   1.0000   1.0000   1.0000   1.0000   1.0000   1.0000   1.0000
     1.0000   1.0000   1.0000   1.0000   1.0000   1.0000   1.0000   1.0000
     1.0000   1.0000   1.0000   1.0000   1.0000   1.0000   1.0000   1.0000
     1.0000   1.0000   1.0000   1.0000   1.0000   1.0000   1.0000   1.0000
     1.0000   1.0000   1.0000   1.0000   1.0000   1.0000   1.0000   1.0000
     1.0000   1.0000   1.0000   1.0000   1.0000   1.0000   1.0000   1.0000
     1.0000   1.0000   1.0000   1.0000   1.0000   1.0000   1.0000   1.0000
     1.0000   1.0000   1.0000   1.0000   1.0000   1.0000   1.0000   1.0000
     1.0000   1.0000   1.0000   1.0000   1.0000   0.0000   0.0000   0.0000
     0.0000   0.0000   0.0000   0.0000   0.0000   0.0000   0.0000   0.0000
     0.0000   0.0000   0.0000   0.0000   0.0000   0.0000

     the Fermi energy is    -3.0125 ev

!    total energy              =   -4618.05999303 Ry
     Harris-Foulkes estimate   =   -4618.05999344 Ry
     estimated scf accuracy    <          1.6E-09 Ry

     total all-electron energy =   -138218.618714 Ry

     The total energy is the sum of the following terms:

     one-electron contribution =   -3608.03848786 Ry
     hartree contribution      =    1903.38393203 Ry
     xc contribution           =    -462.98090682 Ry
     ewald contribution        =     962.01017866 Ry
     one-center paw contrib.   =   -3412.43470904 Ry
      -> PAW hartree energy AE =      66.87979815 Ry
      -> PAW hartree energy PS =     -66.73160472 Ry
      -> PAW xc energy AE      =    -297.86681361 Ry
      -> PAW xc energy PS      =      35.22477091 Ry
      -> total E_H with PAW    =    1903.53212546 Ry
      -> total E_XC with PAW   =    -725.62294952 Ry
     smearing contrib. (-TS)   =      -0.00000000 Ry

     total magnetization       =     5.00 Bohr mag/cell
     absolute magnetization    =     5.21 Bohr mag/cell

     convergence has been achieved in  23 iterations

     Writing output data file ./tmp/ag13.save/
 
     init_run     :      4.94s CPU      5.23s WALL (       1 calls)
     electrons    :    217.63s CPU    222.84s WALL (       1 calls)

     Called by init_run:
     wfcinit      :      2.76s CPU      2.88s WALL (       1 calls)
     wfcinit:atom :      0.04s CPU      0.05s WALL (       2 calls)
     wfcinit:wfcr :      2.62s CPU      2.69s WALL (       2 calls)
     potinit      :      1.53s CPU      1.59s WALL (       1 calls)
     hinit0       :      0.27s CPU      0.33s WALL (       1 calls)

     Called by electrons:
     c_bands      :    143.39s CPU    146.88s WALL (      23 calls)
     sum_band     :     26.44s CPU     27.31s WALL (      23 calls)
     v_of_rho     :      5.50s CPU      5.60s WALL (      24 calls)
     v_h          :      0.29s CPU      0.29s WALL (      24 calls)
     v_xc         :      5.21s CPU      5.31s WALL (      24 calls)
     newd         :      5.48s CPU      5.94s WALL (      24 calls)
     PAW_pot      :     31.15s CPU     31.37s WALL (      24 calls)
     mix_rho      :      7.04s CPU      7.11s WALL (      23 calls)

     Called by c_bands:
     init_us_2    :      2.09s CPU      2.11s WALL (      94 calls)
     regterg      :    134.20s CPU    137.62s WALL (      46 calls)

     Called by sum_band:
     sum_band:bec :      0.03s CPU      0.03s WALL (      46 calls)
     addusdens    :      8.02s CPU      8.72s WALL (      23 calls)

     Called by *egterg:
     h_psi        :     76.97s CPU     77.67s WALL (     261 calls)
     s_psi        :     16.78s CPU     16.83s WALL (     261 calls)
     g_psi        :      0.46s CPU      0.47s WALL (     213 calls)
     rdiaghg      :      6.30s CPU      6.72s WALL (     259 calls)
     regterg:over :     12.01s CPU     12.03s WALL (     213 calls)
     regterg:upda :     11.78s CPU     11.83s WALL (     213 calls)
     regterg:last :      3.85s CPU      3.87s WALL (      46 calls)
     rdiaghg:chol :      0.22s CPU      0.23s WALL (     259 calls)
     rdiaghg:inve :      0.17s CPU      0.18s WALL (     259 calls)
     rdiaghg:para :      0.51s CPU      0.52s WALL (     518 calls)

     Called by h_psi:
     h_psi:calbec :     10.55s CPU     10.59s WALL (     261 calls)
     vloc_psi     :     48.85s CPU     49.45s WALL (     261 calls)
     add_vuspsi   :     16.50s CPU     16.55s WALL (     261 calls)

     General routines
     calbec       :     14.13s CPU     14.18s WALL (     307 calls)
     fft          :      4.09s CPU      4.17s WALL (     405 calls)
     ffts         :      4.24s CPU      4.27s WALL (     508 calls)
     fftw         :     48.85s CPU     49.45s WALL (   11134 calls)
 
     Parallel routines
     fft_scatt_xy :      7.17s CPU      7.31s WALL (   12047 calls)
     fft_scatt_yz :     21.29s CPU     21.48s WALL (   12047 calls)

     PAW routines
     PAW_pot      :     31.15s CPU     31.37s WALL (      24 calls)
 
     PWSCF        :   3m44.60s CPU   3m50.53s WALL

 
   This run was terminated on:  21:58:14   3Jan2021            

=------------------------------------------------------------------------------=
   JOB DONE.
=------------------------------------------------------------------------------=
