
     Program PWSCF v.6.5 starts on  3Jan2021 at 22:30:45 

     This program is part of the open-source Quantum ESPRESSO suite
     for quantum simulation of materials; please cite
         "P. Giannozzi et al., J. Phys.:Condens. Matter 21 395502 (2009);
         "P. Giannozzi et al., J. Phys.:Condens. Matter 29 465901 (2017);
          URL http://www.quantum-espresso.org", 
     in publications or presentations arising from this work. More details at
     http://www.quantum-espresso.org/quote

     Parallel version (MPI & OpenMP), running on      24 processor cores
     Number of MPI processes:                24
     Threads/MPI process:                     1

     MPI processes distributed on     1 nodes
     R & G space division:  proc/nbgrp/npool/nimage =      24
     Waiting for input...
     Reading input from standard input

     Current dimensions of program PWSCF are:
     Max number of different atomic species (ntypx) = 10
     Max number of k-points (npk) =  40000
     Max angular momentum in pseudopotentials (lmaxx) =  3
               file Ag.pbe-dn-kjpaw_psl.0.1.UPF: wavefunction(s)  5S 5P 4D renormalized

     gamma-point specific algorithms are used

     Subspace diagonalization in iterative solution of the eigenvalue problem:
     one sub-group per band group will be used
     scalapack distributed-memory algorithm (size of sub-group:  4*  4 procs)

 
     Parallelization info
     --------------------
     sticks:   dense  smooth     PW     G-vecs:    dense   smooth      PW
     Min         938     536    134               106230    45856    5730
     Max         941     538    138               106244    45862    5734
     Sum       22557   12893   3233              2549701  1100629  137545
 


     bravais-lattice index     =            1
     lattice parameter (alat)  =      30.0000  a.u.
     unit-cell volume          =   27000.0000 (a.u.)^3
     number of atoms/cell      =           13
     number of atomic types    =            1
     number of electrons       =       143.00
     number of Kohn-Sham states=           86
     kinetic-energy cutoff     =      45.0000  Ry
     charge density cutoff     =     315.0000  Ry
     convergence threshold     =      1.0E-08
     mixing beta               =       0.7000
     number of iterations used =            8  local-TF  mixing
     Exchange-correlation= SLA PW PBX PBC
                           (   1   4   3   4   0   0   0)

     celldm(1)=  30.000000  celldm(2)=   0.000000  celldm(3)=   0.000000
     celldm(4)=   0.000000  celldm(5)=   0.000000  celldm(6)=   0.000000

     crystal axes: (cart. coord. in units of alat)
               a(1) = (   1.000000   0.000000   0.000000 )  
               a(2) = (   0.000000   1.000000   0.000000 )  
               a(3) = (   0.000000   0.000000   1.000000 )  

     reciprocal axes: (cart. coord. in units 2 pi/alat)
               b(1) = (  1.000000  0.000000  0.000000 )  
               b(2) = (  0.000000  1.000000  0.000000 )  
               b(3) = (  0.000000  0.000000  1.000000 )  


     PseudoPot. # 1 for Ag read from file:
     ../../pseudo/Ag.pbe-dn-kjpaw_psl.0.1.UPF
     MD5 check sum: 2edc915f30f03476250949c796a6a376
     Pseudo is Projector augmented-wave + core cor, Zval = 11.0
     Generated using "atomic" code by A. Dal Corso v.5.0.2 svn rev. 9415
     Shape of augmentation charge: PSQ
     Using radial grid of 1237 points,  6 beta functions with: 
                l(1) =   0
                l(2) =   0
                l(3) =   1
                l(4) =   1
                l(5) =   2
                l(6) =   2
     Q(r) pseudized with 0 coefficients 


     atomic species   valence    mass     pseudopotential
        Ag            11.00   107.87000     Ag( 1.00)

     Starting magnetic structure 
     atomic species   magnetization
        Ag           0.700

     No symmetry found


                                    s                        frac. trans.

      isym =  1     identity                                     

 cryst.   s( 1) = (     1          0          0      )
                  (     0          1          0      )
                  (     0          0          1      )

 cart.    s( 1) = (  1.0000000  0.0000000  0.0000000 )
                  (  0.0000000  1.0000000  0.0000000 )
                  (  0.0000000  0.0000000  1.0000000 )


     point group C_1 (1)    
     there are  1 classes
     the character table:

       E    
A      1.00

     the symmetry operations in each class and the name of the first element:

     E        1
          identity                                               

   Cartesian axes

     site n.     atom                  positions (alat units)
         1           Ag  tau(   1) = (   0.1491734   0.1458890   0.2837596  )
         2           Ag  tau(   2) = (   0.1792846   0.3119907   0.3576786  )
         3           Ag  tau(   3) = (   0.4329009   0.2204880   0.2303197  )
         4           Ag  tau(   4) = (   0.3110329   0.1832594   0.3634954  )
         5           Ag  tau(   5) = (   0.3462969   0.2059790   0.0682615  )
         6           Ag  tau(   6) = (   0.3764058   0.3721183   0.1421461  )
         7           Ag  tau(   7) = (   0.1710023   0.1598862   0.1012802  )
         8           Ag  tau(   8) = (   0.2627924   0.2590014   0.2129455  )
         9           Ag  tau(   9) = (   0.2195907   0.4286912   0.2208285  )
        10           Ag  tau(  10) = (   0.3545741   0.3581333   0.3245700  )
        11           Ag  tau(  11) = (   0.0926946   0.2974737   0.1955799  )
        12           Ag  tau(  12) = (   0.2145339   0.3347544   0.0624028  )
        13           Ag  tau(  13) = (   0.3059095   0.0893008   0.2050735  )

   Crystallographic axes

     site n.     atom                  positions (cryst. coord.)
         1           Ag  tau(   1) = (  0.1491734  0.1458890  0.2837596  )
         2           Ag  tau(   2) = (  0.1792846  0.3119907  0.3576786  )
         3           Ag  tau(   3) = (  0.4329009  0.2204880  0.2303197  )
         4           Ag  tau(   4) = (  0.3110329  0.1832594  0.3634954  )
         5           Ag  tau(   5) = (  0.3462969  0.2059790  0.0682615  )
         6           Ag  tau(   6) = (  0.3764058  0.3721183  0.1421461  )
         7           Ag  tau(   7) = (  0.1710023  0.1598862  0.1012802  )
         8           Ag  tau(   8) = (  0.2627924  0.2590014  0.2129455  )
         9           Ag  tau(   9) = (  0.2195907  0.4286912  0.2208285  )
        10           Ag  tau(  10) = (  0.3545741  0.3581333  0.3245700  )
        11           Ag  tau(  11) = (  0.0926946  0.2974737  0.1955799  )
        12           Ag  tau(  12) = (  0.2145339  0.3347544  0.0624028  )
        13           Ag  tau(  13) = (  0.3059095  0.0893008  0.2050735  )

     number of k points=     1  Fermi-Dirac smearing, width (Ry)=  0.0007
                       cart. coord. in units 2pi/alat
        k(    1) = (   0.0000000   0.0000000   0.0000000), wk =   1.0000000

                       cryst. coord.
        k(    1) = (   0.0000000   0.0000000   0.0000000), wk =   1.0000000

     Dense  grid:  1274851 G-vectors     FFT dimensions: ( 180, 180, 180)

     Smooth grid:   550315 G-vectors     FFT dimensions: ( 135, 135, 135)

     Dynamical RAM for                 wfc:       3.76 MB

     Dynamical RAM for     wfc (w. buffer):      11.29 MB

     Dynamical RAM for           str. fact:       0.81 MB

     Dynamical RAM for           local pot:       0.00 MB

     Dynamical RAM for          nlocal pot:      10.24 MB

     Dynamical RAM for                qrad:       6.79 MB

     Dynamical RAM for          rho,v,vnew:      16.73 MB

     Dynamical RAM for               rhoin:       5.58 MB

     Dynamical RAM for            rho*nmix:      25.94 MB

     Dynamical RAM for           G-vectors:       3.21 MB

     Dynamical RAM for          h,s,v(r/c):       0.17 MB

     Dynamical RAM for          <psi|beta>:       0.15 MB

     Dynamical RAM for                 psi:      15.05 MB

     Dynamical RAM for                hpsi:      15.05 MB

     Dynamical RAM for                spsi:      15.05 MB

     Dynamical RAM for      wfcinit/wfcrot:      10.55 MB

     Dynamical RAM for           addusdens:     162.10 MB

     Estimated static dynamical RAM per process >      94.07 MB

     Estimated max dynamical RAM per process >     256.17 MB

     Estimated total dynamical RAM >       6.00 GB
     Generating pointlists ...
     new r_m :   0.0723 (alat units)  2.1687 (a.u.) for type    1

     Check: negative core charge=   -0.000003

     Initial potential from superposition of free atoms

     starting charge  142.99482, renormalised to  143.00000
     Starting wfcs are  117 randomized atomic wfcs
     Checking if some PAW data can be deallocated... 

     total cpu time spent up to now is       19.4 secs

     Self-consistent Calculation

     iteration #  1     ecut=    45.00 Ry     beta= 0.70
     Davidson diagonalization with overlap
     ethr =  1.00E-02,  avg # of iterations =  3.5

     total cpu time spent up to now is       49.3 secs

     total energy              =   -4617.25073490 Ry
     Harris-Foulkes estimate   =   -4610.32841216 Ry
     estimated scf accuracy    <       7.35083051 Ry

     total magnetization       =     5.00 Bohr mag/cell
     absolute magnetization    =     5.01 Bohr mag/cell

     iteration #  2     ecut=    45.00 Ry     beta= 0.70
     Davidson diagonalization with overlap
     ethr =  5.14E-03,  avg # of iterations =  1.0

     total cpu time spent up to now is       76.7 secs

     total energy              =   -4617.98864455 Ry
     Harris-Foulkes estimate   =   -4617.35309151 Ry
     estimated scf accuracy    <       0.96243280 Ry

     total magnetization       =     5.00 Bohr mag/cell
     absolute magnetization    =     5.03 Bohr mag/cell

     iteration #  3     ecut=    45.00 Ry     beta= 0.70
     Davidson diagonalization with overlap
     ethr =  6.73E-04,  avg # of iterations =  2.5

     total cpu time spent up to now is      105.0 secs

     total energy              =   -4618.04607463 Ry
     Harris-Foulkes estimate   =   -4618.05739370 Ry
     estimated scf accuracy    <       0.07868643 Ry

     total magnetization       =     5.00 Bohr mag/cell
     absolute magnetization    =     5.04 Bohr mag/cell

     iteration #  4     ecut=    45.00 Ry     beta= 0.70
     Davidson diagonalization with overlap
     ethr =  5.50E-05,  avg # of iterations =  9.5

     total cpu time spent up to now is      142.2 secs

     total energy              =   -4618.06011853 Ry
     Harris-Foulkes estimate   =   -4618.06794955 Ry
     estimated scf accuracy    <       0.03471389 Ry

     total magnetization       =     5.00 Bohr mag/cell
     absolute magnetization    =     5.12 Bohr mag/cell

     iteration #  5     ecut=    45.00 Ry     beta= 0.70
     Davidson diagonalization with overlap
     ethr =  2.43E-05,  avg # of iterations =  3.0

     total cpu time spent up to now is      171.1 secs

     total energy              =   -4618.05550194 Ry
     Harris-Foulkes estimate   =   -4618.06198955 Ry
     estimated scf accuracy    <       0.01844183 Ry

     total magnetization       =     5.00 Bohr mag/cell
     absolute magnetization    =     5.18 Bohr mag/cell

     iteration #  6     ecut=    45.00 Ry     beta= 0.70
     Davidson diagonalization with overlap
     ethr =  1.29E-05,  avg # of iterations = 19.5

     total cpu time spent up to now is      204.8 secs

     total energy              =   -4618.05575872 Ry
     Harris-Foulkes estimate   =   -4618.05665926 Ry
     estimated scf accuracy    <       0.01043174 Ry

     total magnetization       =     5.00 Bohr mag/cell
     absolute magnetization    =     5.25 Bohr mag/cell

     iteration #  7     ecut=    45.00 Ry     beta= 0.70
     Davidson diagonalization with overlap
     ethr =  7.29E-06,  avg # of iterations =  7.5

     total cpu time spent up to now is      236.3 secs

     total energy              =   -4618.05467464 Ry
     Harris-Foulkes estimate   =   -4618.05658474 Ry
     estimated scf accuracy    <       0.00542111 Ry

     total magnetization       =     5.00 Bohr mag/cell
     absolute magnetization    =     5.21 Bohr mag/cell

     iteration #  8     ecut=    45.00 Ry     beta= 0.70
     Davidson diagonalization with overlap
     ethr =  3.79E-06,  avg # of iterations =  8.5

     total cpu time spent up to now is      266.4 secs

     total energy              =   -4618.05651080 Ry
     Harris-Foulkes estimate   =   -4618.05488527 Ry
     estimated scf accuracy    <       0.00331747 Ry

     total magnetization       =     5.00 Bohr mag/cell
     absolute magnetization    =     5.21 Bohr mag/cell

     iteration #  9     ecut=    45.00 Ry     beta= 0.70
     Davidson diagonalization with overlap
     ethr =  2.32E-06,  avg # of iterations =  8.0

     total cpu time spent up to now is      298.7 secs

     total energy              =   -4618.05809418 Ry
     Harris-Foulkes estimate   =   -4618.05688080 Ry
     estimated scf accuracy    <       0.00159210 Ry

     total magnetization       =     5.00 Bohr mag/cell
     absolute magnetization    =     5.22 Bohr mag/cell

     iteration # 10     ecut=    45.00 Ry     beta= 0.70
     Davidson diagonalization with overlap
     ethr =  1.11E-06,  avg # of iterations =  7.5

     total cpu time spent up to now is      329.1 secs

     total energy              =   -4618.05885534 Ry
     Harris-Foulkes estimate   =   -4618.05819485 Ry
     estimated scf accuracy    <       0.00078831 Ry

     total magnetization       =     5.00 Bohr mag/cell
     absolute magnetization    =     5.20 Bohr mag/cell

     iteration # 11     ecut=    45.00 Ry     beta= 0.70
     Davidson diagonalization with overlap
     ethr =  5.51E-07,  avg # of iterations =  6.0

     total cpu time spent up to now is      359.2 secs

     total energy              =   -4618.05916044 Ry
     Harris-Foulkes estimate   =   -4618.05892914 Ry
     estimated scf accuracy    <       0.00056166 Ry

     total magnetization       =     5.00 Bohr mag/cell
     absolute magnetization    =     5.21 Bohr mag/cell

     iteration # 12     ecut=    45.00 Ry     beta= 0.70
     Davidson diagonalization with overlap
     ethr =  3.93E-07,  avg # of iterations =  4.0

     total cpu time spent up to now is      388.0 secs

     total energy              =   -4618.05913647 Ry
     Harris-Foulkes estimate   =   -4618.05917778 Ry
     estimated scf accuracy    <       0.00035677 Ry

     total magnetization       =     5.00 Bohr mag/cell
     absolute magnetization    =     5.22 Bohr mag/cell

     iteration # 13     ecut=    45.00 Ry     beta= 0.70
     Davidson diagonalization with overlap
     ethr =  2.49E-07,  avg # of iterations =  6.5

     total cpu time spent up to now is      420.2 secs

     total energy              =   -4618.05918988 Ry
     Harris-Foulkes estimate   =   -4618.05922572 Ry
     estimated scf accuracy    <       0.00021531 Ry

     total magnetization       =     5.00 Bohr mag/cell
     absolute magnetization    =     5.21 Bohr mag/cell

     iteration # 14     ecut=    45.00 Ry     beta= 0.70
     Davidson diagonalization with overlap
     ethr =  1.51E-07,  avg # of iterations =  2.5

     total cpu time spent up to now is      448.6 secs

     total energy              =   -4618.05940391 Ry
     Harris-Foulkes estimate   =   -4618.05920328 Ry
     estimated scf accuracy    <       0.00006867 Ry

     total magnetization       =     5.00 Bohr mag/cell
     absolute magnetization    =     5.21 Bohr mag/cell

     iteration # 15     ecut=    45.00 Ry     beta= 0.70
     Davidson diagonalization with overlap
     ethr =  4.80E-08,  avg # of iterations =  6.0

     total cpu time spent up to now is      479.4 secs

     total energy              =   -4618.05945023 Ry
     Harris-Foulkes estimate   =   -4618.05941318 Ry
     estimated scf accuracy    <       0.00002191 Ry

     total magnetization       =     5.00 Bohr mag/cell
     absolute magnetization    =     5.21 Bohr mag/cell

     iteration # 16     ecut=    45.00 Ry     beta= 0.70
     Davidson diagonalization with overlap
     ethr =  1.53E-08,  avg # of iterations =  3.0

     total cpu time spent up to now is      508.7 secs

     total energy              =   -4618.05948531 Ry
     Harris-Foulkes estimate   =   -4618.05945260 Ry
     estimated scf accuracy    <       0.00001080 Ry

     total magnetization       =     5.00 Bohr mag/cell
     absolute magnetization    =     5.21 Bohr mag/cell

     iteration # 17     ecut=    45.00 Ry     beta= 0.70
     Davidson diagonalization with overlap
     ethr =  7.55E-09,  avg # of iterations =  3.5

     total cpu time spent up to now is      537.7 secs

     total energy              =   -4618.05947693 Ry
     Harris-Foulkes estimate   =   -4618.05948628 Ry
     estimated scf accuracy    <       0.00000439 Ry

     total magnetization       =     5.00 Bohr mag/cell
     absolute magnetization    =     5.21 Bohr mag/cell

     iteration # 18     ecut=    45.00 Ry     beta= 0.70
     Davidson diagonalization with overlap
     ethr =  3.07E-09,  avg # of iterations =  3.0

     total cpu time spent up to now is      566.4 secs

     total energy              =   -4618.05947794 Ry
     Harris-Foulkes estimate   =   -4618.05947720 Ry
     estimated scf accuracy    <       0.00000083 Ry

     total magnetization       =     5.00 Bohr mag/cell
     absolute magnetization    =     5.21 Bohr mag/cell

     iteration # 19     ecut=    45.00 Ry     beta= 0.70
     Davidson diagonalization with overlap
     ethr =  5.82E-10,  avg # of iterations =  3.5

     total cpu time spent up to now is      596.2 secs

     total energy              =   -4618.05948036 Ry
     Harris-Foulkes estimate   =   -4618.05947805 Ry
     estimated scf accuracy    <       0.00000033 Ry

     total magnetization       =     5.00 Bohr mag/cell
     absolute magnetization    =     5.21 Bohr mag/cell

     iteration # 20     ecut=    45.00 Ry     beta= 0.70
     Davidson diagonalization with overlap
     ethr =  2.30E-10,  avg # of iterations =  4.5

     total cpu time spent up to now is      625.8 secs

     total energy              =   -4618.05948150 Ry
     Harris-Foulkes estimate   =   -4618.05948041 Ry
     estimated scf accuracy    <       0.00000008 Ry

     total magnetization       =     5.00 Bohr mag/cell
     absolute magnetization    =     5.21 Bohr mag/cell

     iteration # 21     ecut=    45.00 Ry     beta= 0.70
     Davidson diagonalization with overlap
     ethr =  5.72E-11,  avg # of iterations =  3.0

     total cpu time spent up to now is      654.5 secs

     total energy              =   -4618.05948197 Ry
     Harris-Foulkes estimate   =   -4618.05948151 Ry
     estimated scf accuracy    <       0.00000003 Ry

     total magnetization       =     5.00 Bohr mag/cell
     absolute magnetization    =     5.21 Bohr mag/cell

     iteration # 22     ecut=    45.00 Ry     beta= 0.70
     Davidson diagonalization with overlap
     ethr =  2.09E-11,  avg # of iterations =  4.0

     total cpu time spent up to now is      684.2 secs

     total energy              =   -4618.05948183 Ry
     Harris-Foulkes estimate   =   -4618.05948197 Ry
     estimated scf accuracy    <       0.00000001 Ry

     total magnetization       =     5.00 Bohr mag/cell
     absolute magnetization    =     5.21 Bohr mag/cell

     iteration # 23     ecut=    45.00 Ry     beta= 0.70
     Davidson diagonalization with overlap
     ethr =  7.54E-12,  avg # of iterations =  2.5
 
     Magnetic moment per site:
     atom:    1    charge:    9.4179    magn:    0.1129    constr:    0.0000
     atom:    2    charge:    9.4177    magn:    0.1129    constr:    0.0000
     atom:    3    charge:    9.4176    magn:    0.1128    constr:    0.0000
     atom:    4    charge:    9.4177    magn:    0.1129    constr:    0.0000
     atom:    5    charge:    9.4178    magn:    0.1128    constr:    0.0000
     atom:    6    charge:    9.4178    magn:    0.1129    constr:    0.0000
     atom:    7    charge:    9.4178    magn:    0.1129    constr:    0.0000
     atom:    8    charge:    9.5351    magn:    0.1426    constr:    0.0000
     atom:    9    charge:    9.4177    magn:    0.1128    constr:    0.0000
     atom:   10    charge:    9.4178    magn:    0.1128    constr:    0.0000
     atom:   11    charge:    9.4177    magn:    0.1128    constr:    0.0000
     atom:   12    charge:    9.4177    magn:    0.1129    constr:    0.0000
     atom:   13    charge:    9.4179    magn:    0.1128    constr:    0.0000

     total cpu time spent up to now is      710.5 secs

     End of self-consistent calculation

 ------ SPIN UP ------------


          k = 0.0000 0.0000 0.0000 ( 68773 PWs)   bands (ev):

    -9.3755  -8.9874  -8.9872  -8.9870  -8.9867  -8.9865  -8.0170  -8.0167
    -8.0166  -7.8723  -7.8719  -7.8716  -7.8713  -7.8320  -7.8318  -7.8317
    -7.7550  -7.6689  -7.6685  -7.6682  -7.6682  -7.4503  -7.4501  -7.4498
    -7.4492  -7.4489  -7.3957  -7.3951  -7.3949  -7.1012  -7.1011  -7.1004
    -7.0999  -7.0995  -7.0349  -7.0346  -7.0342  -7.0335  -7.0329  -6.6460
    -6.6460  -6.6460  -6.5745  -6.5742  -6.5740  -6.5737  -6.4059  -6.4058
    -6.4057  -6.4056  -6.4056  -6.3710  -6.3707  -6.3705  -6.3704  -6.2825
    -6.2824  -6.2823  -6.2516  -6.2513  -6.2512  -6.2510  -6.2509  -6.1165
    -6.1164  -6.1162  -5.4044  -5.4041  -5.4039  -3.2235  -3.2230  -3.2228
    -3.2219  -3.2215  -2.4995  -1.1642  -1.1628  -1.1612  -0.7934  -0.7927
    -0.7917  -0.7903  -0.7444  -0.7436  -0.7430   0.3318

     occupation numbers 
     1.0000   1.0000   1.0000   1.0000   1.0000   1.0000   1.0000   1.0000
     1.0000   1.0000   1.0000   1.0000   1.0000   1.0000   1.0000   1.0000
     1.0000   1.0000   1.0000   1.0000   1.0000   1.0000   1.0000   1.0000
     1.0000   1.0000   1.0000   1.0000   1.0000   1.0000   1.0000   1.0000
     1.0000   1.0000   1.0000   1.0000   1.0000   1.0000   1.0000   1.0000
     1.0000   1.0000   1.0000   1.0000   1.0000   1.0000   1.0000   1.0000
     1.0000   1.0000   1.0000   1.0000   1.0000   1.0000   1.0000   1.0000
     1.0000   1.0000   1.0000   1.0000   1.0000   1.0000   1.0000   1.0000
     1.0000   1.0000   1.0000   1.0000   1.0000   1.0000   1.0000   1.0000
     1.0000   1.0000   0.0000   0.0000   0.0000   0.0000   0.0000   0.0000
     0.0000   0.0000   0.0000   0.0000   0.0000   0.0000

 ------ SPIN DOWN ----------


          k = 0.0000 0.0000 0.0000 ( 68773 PWs)   bands (ev):

    -9.3132  -8.9004  -8.9003  -8.9000  -8.8997  -8.8996  -7.9276  -7.9272
    -7.9271  -7.7843  -7.7839  -7.7836  -7.7832  -7.6991  -7.6989  -7.6988
    -7.5583  -7.5579  -7.5577  -7.5576  -7.5039  -7.3408  -7.3406  -7.3403
    -7.3397  -7.3394  -7.2523  -7.2518  -7.2515  -7.0073  -7.0072  -7.0065
    -7.0060  -7.0056  -6.9466  -6.9463  -6.9459  -6.9452  -6.9447  -6.5700
    -6.5700  -6.5700  -6.4781  -6.4778  -6.4776  -6.4773  -6.3171  -6.3171
    -6.3169  -6.3169  -6.3168  -6.2799  -6.2796  -6.2794  -6.2793  -6.1994
    -6.1994  -6.1993  -6.1553  -6.1550  -6.1549  -6.1547  -6.1545  -6.0496
    -6.0494  -6.0493  -5.1289  -5.1286  -5.1284  -2.8010  -2.8004  -2.8000
    -2.7991  -2.7986  -2.1708  -0.7600  -0.7583  -0.7566  -0.4503  -0.4493
    -0.4489  -0.3409  -0.3396  -0.3369  -0.3348   0.4173

     occupation numbers 
     1.0000   1.0000   1.0000   1.0000   1.0000   1.0000   1.0000   1.0000
     1.0000   1.0000   1.0000   1.0000   1.0000   1.0000   1.0000   1.0000
     1.0000   1.0000   1.0000   1.0000   1.0000   1.0000   1.0000   1.0000
     1.0000   1.0000   1.0000   1.0000   1.0000   1.0000   1.0000   1.0000
     1.0000   1.0000   1.0000   1.0000   1.0000   1.0000   1.0000   1.0000
     1.0000   1.0000   1.0000   1.0000   1.0000   1.0000   1.0000   1.0000
     1.0000   1.0000   1.0000   1.0000   1.0000   1.0000   1.0000   1.0000
     1.0000   1.0000   1.0000   1.0000   1.0000   1.0000   1.0000   1.0000
     1.0000   1.0000   1.0000   1.0000   1.0000   0.0000   0.0000   0.0000
     0.0000   0.0000   0.0000   0.0000   0.0000   0.0000   0.0000   0.0000
     0.0000   0.0000   0.0000   0.0000   0.0000   0.0000

     the Fermi energy is    -3.0114 ev

!    total energy              =   -4618.05948177 Ry
     Harris-Foulkes estimate   =   -4618.05948183 Ry
     estimated scf accuracy    <          4.2E-09 Ry

     total all-electron energy =   -138218.618203 Ry

     The total energy is the sum of the following terms:

     one-electron contribution =   -3608.05037140 Ry
     hartree contribution      =    1903.39675662 Ry
     xc contribution           =    -462.98130674 Ry
     ewald contribution        =     962.01017866 Ry
     one-center paw contrib.   =   -3412.43473892 Ry
      -> PAW hartree energy AE =      66.88102079 Ry
      -> PAW hartree energy PS =     -66.73281972 Ry
      -> PAW xc energy AE      =    -297.86695363 Ry
      -> PAW xc energy PS      =      35.22490219 Ry
      -> total E_H with PAW    =    1903.54495769 Ry
      -> total E_XC with PAW   =    -725.62335817 Ry
     smearing contrib. (-TS)   =      -0.00000000 Ry

     total magnetization       =     5.00 Bohr mag/cell
     absolute magnetization    =     5.21 Bohr mag/cell

     convergence has been achieved in  23 iterations

     Writing output data file ./tmp/ag13.save/
 
     init_run     :     16.85s CPU     17.47s WALL (       1 calls)
     electrons    :    674.57s CPU    691.29s WALL (       1 calls)

     Called by init_run:
     wfcinit      :      7.57s CPU      7.71s WALL (       1 calls)
     wfcinit:atom :      0.04s CPU      0.05s WALL (       2 calls)
     wfcinit:wfcr :      7.42s CPU      7.52s WALL (       2 calls)
     potinit      :      4.13s CPU      4.34s WALL (       1 calls)
     hinit0       :      0.96s CPU      1.00s WALL (       1 calls)

     Called by electrons:
     c_bands      :    324.41s CPU    329.15s WALL (      23 calls)
     sum_band     :    170.03s CPU    175.38s WALL (      23 calls)
     v_of_rho     :     52.28s CPU     53.55s WALL (      24 calls)
     v_h          :      3.42s CPU      3.43s WALL (      24 calls)
     v_xc         :     48.86s CPU     50.11s WALL (      24 calls)
     newd         :     48.70s CPU     53.26s WALL (      24 calls)
     PAW_pot      :     30.62s CPU     30.85s WALL (      24 calls)
     mix_rho      :     44.07s CPU     44.69s WALL (      23 calls)

     Called by c_bands:
     init_us_2    :      2.16s CPU      2.19s WALL (      94 calls)
     regterg      :    315.04s CPU    319.67s WALL (      46 calls)

     Called by sum_band:
     sum_band:bec :      0.02s CPU      0.02s WALL (      46 calls)
     addusdens    :     95.74s CPU    100.60s WALL (      23 calls)

     Called by *egterg:
     h_psi        :    258.91s CPU    260.82s WALL (     293 calls)
     s_psi        :     16.78s CPU     16.83s WALL (     293 calls)
     g_psi        :      0.47s CPU      0.47s WALL (     245 calls)
     rdiaghg      :      7.15s CPU      7.61s WALL (     291 calls)
     regterg:over :     13.46s CPU     13.51s WALL (     245 calls)
     regterg:upda :     12.53s CPU     12.63s WALL (     245 calls)
     regterg:last :      3.95s CPU      3.97s WALL (      46 calls)
     rdiaghg:chol :      0.25s CPU      0.26s WALL (     291 calls)
     rdiaghg:inve :      0.19s CPU      0.20s WALL (     291 calls)
     rdiaghg:para :      0.60s CPU      0.61s WALL (     582 calls)

     Called by h_psi:
     h_psi:calbec :     11.32s CPU     11.35s WALL (     293 calls)
     vloc_psi     :    230.05s CPU    231.86s WALL (     293 calls)
     add_vuspsi   :     16.45s CPU     16.51s WALL (     293 calls)

     General routines
     calbec       :     14.91s CPU     14.94s WALL (     339 calls)
     fft          :     55.57s CPU     55.89s WALL (     497 calls)
     ffts         :     25.10s CPU     25.25s WALL (     556 calls)
     fftw         :    203.40s CPU    204.96s WALL (   11250 calls)
     interpolate  :      8.28s CPU      8.35s WALL (      48 calls)
 
     Parallel routines
     fft_scatt_xy :     52.45s CPU     52.93s WALL (   12303 calls)
     fft_scatt_yz :     70.88s CPU     71.34s WALL (   12303 calls)

     PAW routines
     PAW_pot      :     30.62s CPU     30.85s WALL (      24 calls)
 
     PWSCF        :  11m33.55s CPU  11m51.55s WALL

 
   This run was terminated on:  22:42:37   3Jan2021            

=------------------------------------------------------------------------------=
   JOB DONE.
=------------------------------------------------------------------------------=
