
     Program PWSCF v.6.5 starts on  3Jun2020 at  2: 2:49 

     This program is part of the open-source Quantum ESPRESSO suite
     for quantum simulation of materials; please cite
         "P. Giannozzi et al., J. Phys.:Condens. Matter 21 395502 (2009);
         "P. Giannozzi et al., J. Phys.:Condens. Matter 29 465901 (2017);
          URL http://www.quantum-espresso.org", 
     in publications or presentations arising from this work. More details at
     http://www.quantum-espresso.org/quote

     Parallel version (MPI & OpenMP), running on      24 processor cores
     Number of MPI processes:                24
     Threads/MPI process:                     1

     MPI processes distributed on     1 nodes
     R & G space division:  proc/nbgrp/npool/nimage =      24
     Waiting for input...
     Reading input from standard input

     Current dimensions of program PWSCF are:
     Max number of different atomic species (ntypx) = 10
     Max number of k-points (npk) =  40000
     Max angular momentum in pseudopotentials (lmaxx) =  3
               file Ag.pbe-dn-kjpaw_psl.0.1.UPF: wavefunction(s)  5S 5P 4D renormalized
               file Bi.pbe-dn-kjpaw_psl.1.0.0.UPF: wavefunction(s)  6P 5D renormalized

     gamma-point specific algorithms are used

     Subspace diagonalization in iterative solution of the eigenvalue problem:
     one sub-group per band group will be used
     scalapack distributed-memory algorithm (size of sub-group:  4*  4 procs)

 
     Parallelization info
     --------------------
     sticks:   dense  smooth     PW     G-vecs:    dense   smooth      PW
     Min        3053    1207    300               622265   154807   19332
     Max        3056    1212    302               622268   154812   19346
     Sum       73305   28997   7245             14934393  3715461  464125
 


     bravais-lattice index     =            1
     lattice parameter (alat)  =      45.0000  a.u.
     unit-cell volume          =   91125.0000 (a.u.)^3
     number of atoms/cell      =           13
     number of atomic types    =            2
     number of electrons       =       147.00
     number of Kohn-Sham states=           89
     kinetic-energy cutoff     =      45.0000  Ry
     charge density cutoff     =     455.0000  Ry
     convergence threshold     =      1.0E-08
     mixing beta               =       0.3000
     number of iterations used =            8  local-TF  mixing
     Exchange-correlation= SLA PW PBX PBC
                           (   1   4   3   4   0   0   0)
     nstep                     =           50


     celldm(1)=  45.000000  celldm(2)=   0.000000  celldm(3)=   0.000000
     celldm(4)=   0.000000  celldm(5)=   0.000000  celldm(6)=   0.000000

     crystal axes: (cart. coord. in units of alat)
               a(1) = (   1.000000   0.000000   0.000000 )  
               a(2) = (   0.000000   1.000000   0.000000 )  
               a(3) = (   0.000000   0.000000   1.000000 )  

     reciprocal axes: (cart. coord. in units 2 pi/alat)
               b(1) = (  1.000000  0.000000  0.000000 )  
               b(2) = (  0.000000  1.000000  0.000000 )  
               b(3) = (  0.000000  0.000000  1.000000 )  


     PseudoPot. # 1 for Ag read from file:
     ../../pseudo/Ag.pbe-dn-kjpaw_psl.0.1.UPF
     MD5 check sum: 2edc915f30f03476250949c796a6a376
     Pseudo is Projector augmented-wave + core cor, Zval = 11.0
     Generated using "atomic" code by A. Dal Corso v.5.0.2 svn rev. 9415
     Shape of augmentation charge: PSQ
     Using radial grid of 1237 points,  6 beta functions with: 
                l(1) =   0
                l(2) =   0
                l(3) =   1
                l(4) =   1
                l(5) =   2
                l(6) =   2
     Q(r) pseudized with 0 coefficients 


     PseudoPot. # 2 for Bi read from file:
     ../../pseudo/Bi.pbe-dn-kjpaw_psl.1.0.0.UPF
     MD5 check sum: 266ded784ae3bc462508ed03f0f37963
     Pseudo is Projector augmented-wave + core cor, Zval = 15.0
     Generated using "atomic" code by A. Dal Corso v.6.2.2
     Shape of augmentation charge: PSQ
     Using radial grid of 1283 points,  6 beta functions with: 
                l(1) =   0
                l(2) =   0
                l(3) =   1
                l(4) =   1
                l(5) =   2
                l(6) =   2
     Q(r) pseudized with 0 coefficients 


     atomic species   valence    mass     pseudopotential
        Ag            11.00   107.87000     Ag( 1.00)
        Bi            15.00   208.98000     Bi( 1.00)

     No symmetry found


                                    s                        frac. trans.

      isym =  1     identity                                     

 cryst.   s( 1) = (     1          0          0      )
                  (     0          1          0      )
                  (     0          0          1      )

 cart.    s( 1) = (  1.0000000  0.0000000  0.0000000 )
                  (  0.0000000  1.0000000  0.0000000 )
                  (  0.0000000  0.0000000  1.0000000 )


     point group C_1 (1)    
     there are  1 classes
     the character table:

       E    
A      1.00

     the symmetry operations in each class and the name of the first element:

     E        1
          identity                                               

   Cartesian axes

     site n.     atom                  positions (alat units)
         1           Ag  tau(   1) = (   0.1011539   0.0989378   0.1881267  )
         2           Ag  tau(   2) = (   0.1207838   0.2072089   0.2362641  )
         3           Ag  tau(   3) = (   0.2860535   0.1475655   0.1532565  )
         4           Ag  tau(   4) = (   0.2066141   0.1232978   0.2400700  )
         5           Ag  tau(   5) = (   0.2296247   0.1381301   0.0476565  )
         6           Ag  tau(   6) = (   0.2492634   0.2463878   0.0958489  )
         7           Ag  tau(   7) = (   0.1153383   0.1080711   0.0691934  )
         8           Bi  tau(   8) = (   0.1751915   0.1726653   0.1419541  )
         9           Ag  tau(   9) = (   0.1470522   0.2832503   0.1471214  )
        10           Ag  tau(  10) = (   0.2350251   0.2372775   0.2147228  )
        11           Ag  tau(  11) = (   0.0643238   0.1977599   0.1306397  )
        12           Ag  tau(  12) = (   0.1437416   0.2220170   0.0438561  )
        13           Ag  tau(  13) = (   0.2032953   0.0620746   0.1368506  )

   Crystallographic axes

     site n.     atom                  positions (cryst. coord.)
         1           Ag  tau(   1) = (  0.1011539  0.0989378  0.1881267  )
         2           Ag  tau(   2) = (  0.1207838  0.2072089  0.2362641  )
         3           Ag  tau(   3) = (  0.2860535  0.1475655  0.1532565  )
         4           Ag  tau(   4) = (  0.2066141  0.1232978  0.2400700  )
         5           Ag  tau(   5) = (  0.2296247  0.1381301  0.0476565  )
         6           Ag  tau(   6) = (  0.2492634  0.2463878  0.0958489  )
         7           Ag  tau(   7) = (  0.1153383  0.1080711  0.0691934  )
         8           Bi  tau(   8) = (  0.1751915  0.1726653  0.1419541  )
         9           Ag  tau(   9) = (  0.1470522  0.2832503  0.1471214  )
        10           Ag  tau(  10) = (  0.2350251  0.2372775  0.2147228  )
        11           Ag  tau(  11) = (  0.0643238  0.1977599  0.1306397  )
        12           Ag  tau(  12) = (  0.1437416  0.2220170  0.0438561  )
        13           Ag  tau(  13) = (  0.2032953  0.0620746  0.1368506  )

     number of k points=     1  Marzari-Vanderbilt smearing, width (Ry)=  0.0220
                       cart. coord. in units 2pi/alat
        k(    1) = (   0.0000000   0.0000000   0.0000000), wk =   2.0000000

                       cryst. coord.
        k(    1) = (   0.0000000   0.0000000   0.0000000), wk =   2.0000000

     Dense  grid:  7467197 G-vectors     FFT dimensions: ( 320, 320, 320)

     Smooth grid:  1857731 G-vectors     FFT dimensions: ( 200, 200, 200)

     Dynamical RAM for                 wfc:      13.14 MB

     Dynamical RAM for     wfc (w. buffer):      13.14 MB

     Dynamical RAM for           str. fact:       9.50 MB

     Dynamical RAM for           local pot:       0.00 MB

     Dynamical RAM for          nlocal pot:      34.55 MB

     Dynamical RAM for                qrad:      24.48 MB

     Dynamical RAM for          rho,v,vnew:      47.06 MB

     Dynamical RAM for               rhoin:      15.69 MB

     Dynamical RAM for            rho*nmix:      75.96 MB

     Dynamical RAM for           G-vectors:      18.39 MB

     Dynamical RAM for          h,s,v(r/c):       0.18 MB

     Dynamical RAM for          <psi|beta>:       0.16 MB

     Dynamical RAM for                 psi:      52.57 MB

     Dynamical RAM for                hpsi:      52.57 MB

     Dynamical RAM for                spsi:      52.57 MB

     Dynamical RAM for      wfcinit/wfcrot:      34.87 MB

     Dynamical RAM for           addusdens:     940.01 MB

     Dynamical RAM for          addusforce:    1061.12 MB

     Estimated static dynamical RAM per process >     307.70 MB

     Estimated max dynamical RAM per process >       1.34 GB

     Estimated total dynamical RAM >      32.08 GB

     Check: negative core charge=   -0.000001

     Initial potential from superposition of free atoms

     starting charge  146.99440, renormalised to  147.00000

     negative rho (up, down):  1.792E-03 0.000E+00
     Starting wfcs are  117 randomized atomic wfcs
     Checking if some PAW data can be deallocated... 
       PAW data deallocated on    2 nodes for type:  1
       PAW data deallocated on   22 nodes for type:  2

     total cpu time spent up to now is       62.6 secs

     Self-consistent Calculation

     iteration #  1     ecut=    45.00 Ry     beta= 0.30
     Davidson diagonalization with overlap
     ethr =  1.00E-02,  avg # of iterations =  3.0

     Threshold (ethr) on eigenvalues was too large:
     Diagonalizing with lowered threshold

     Davidson diagonalization with overlap
     ethr =  2.56E-04,  avg # of iterations =  8.0

     negative rho (up, down):  9.438E-04 0.000E+00

     total cpu time spent up to now is      202.6 secs

     total energy              =   -5168.99804229 Ry
     Harris-Foulkes estimate   =   -5169.05293057 Ry
     estimated scf accuracy    <       0.48875667 Ry

     iteration #  2     ecut=    45.00 Ry     beta= 0.30
     Davidson diagonalization with overlap
     ethr =  3.32E-04,  avg # of iterations =  1.0

     negative rho (up, down):  1.482E-03 0.000E+00

     total cpu time spent up to now is      280.4 secs

     total energy              =   -5168.86766312 Ry
     Harris-Foulkes estimate   =   -5169.00269047 Ry
     estimated scf accuracy    <       0.33986577 Ry

     iteration #  3     ecut=    45.00 Ry     beta= 0.30
     Davidson diagonalization with overlap
     ethr =  2.31E-04,  avg # of iterations =  3.0

     negative rho (up, down):  5.974E-04 0.000E+00

     total cpu time spent up to now is      364.0 secs

     total energy              =   -5168.92013134 Ry
     Harris-Foulkes estimate   =   -5168.92618682 Ry
     estimated scf accuracy    <       0.03506316 Ry

     iteration #  4     ecut=    45.00 Ry     beta= 0.30
     Davidson diagonalization with overlap
     ethr =  2.39E-05,  avg # of iterations =  7.0

     negative rho (up, down):  3.237E-04 0.000E+00

     total cpu time spent up to now is      453.2 secs

     total energy              =   -5168.91577933 Ry
     Harris-Foulkes estimate   =   -5168.92440012 Ry
     estimated scf accuracy    <       0.02808507 Ry

     iteration #  5     ecut=    45.00 Ry     beta= 0.30
     Davidson diagonalization with overlap
     ethr =  1.91E-05,  avg # of iterations =  2.0

     negative rho (up, down):  1.629E-04 0.000E+00

     total cpu time spent up to now is      532.9 secs

     total energy              =   -5168.91459927 Ry
     Harris-Foulkes estimate   =   -5168.91717309 Ry
     estimated scf accuracy    <       0.01552424 Ry

     iteration #  6     ecut=    45.00 Ry     beta= 0.30
     Davidson diagonalization with overlap
     ethr =  1.06E-05,  avg # of iterations =  9.0

     negative rho (up, down):  5.389E-05 0.000E+00

     total cpu time spent up to now is      617.9 secs

     total energy              =   -5168.91308791 Ry
     Harris-Foulkes estimate   =   -5168.91541877 Ry
     estimated scf accuracy    <       0.01161247 Ry

     iteration #  7     ecut=    45.00 Ry     beta= 0.30
     Davidson diagonalization with overlap
     ethr =  7.90E-06,  avg # of iterations =  7.0

     negative rho (up, down):  1.024E-03 0.000E+00

     total cpu time spent up to now is      708.1 secs

     total energy              =   -5168.91514718 Ry
     Harris-Foulkes estimate   =   -5168.91628288 Ry
     estimated scf accuracy    <       0.01849722 Ry

     iteration #  8     ecut=    45.00 Ry     beta= 0.30
     Davidson diagonalization with overlap
     ethr =  7.90E-06,  avg # of iterations =  1.0

     negative rho (up, down):  7.200E-02 0.000E+00

     total cpu time spent up to now is      785.7 secs

     total energy              =   -5168.91267557 Ry
     Harris-Foulkes estimate   =   -5168.91519056 Ry
     estimated scf accuracy    <       0.01644942 Ry

     iteration #  9     ecut=    45.00 Ry     beta= 0.30
     Davidson diagonalization with overlap
     ethr =  7.90E-06,  avg # of iterations = 20.0

     negative rho (up, down):  7.442E-02 0.000E+00

     total cpu time spent up to now is      873.9 secs

     total energy              =   -5168.91518912 Ry
     Harris-Foulkes estimate   =   -5168.91419101 Ry
     estimated scf accuracy    <       0.00344000 Ry

     iteration # 10     ecut=    45.00 Ry     beta= 0.30
     Davidson diagonalization with overlap
     ethr =  2.34E-06,  avg # of iterations = 11.0

     negative rho (up, down):  1.656E-01 0.000E+00

     total cpu time spent up to now is      959.1 secs

     total energy              =   -5168.91679970 Ry
     Harris-Foulkes estimate   =   -5168.91525987 Ry
     estimated scf accuracy    <       0.00314033 Ry

     iteration # 11     ecut=    45.00 Ry     beta= 0.30
     Davidson diagonalization with overlap
     ethr =  2.14E-06,  avg # of iterations = 11.0

     negative rho (up, down):  1.552E-01 0.000E+00

     total cpu time spent up to now is     1049.0 secs

     total energy              =   -5168.91646625 Ry
     Harris-Foulkes estimate   =   -5168.91690812 Ry
     estimated scf accuracy    <       0.00234694 Ry

     iteration # 12     ecut=    45.00 Ry     beta= 0.30
     Davidson diagonalization with overlap
     ethr =  1.60E-06,  avg # of iterations =  2.0

     negative rho (up, down):  1.579E-01 0.000E+00

     total cpu time spent up to now is     1128.0 secs

     total energy              =   -5168.91566448 Ry
     Harris-Foulkes estimate   =   -5168.91654074 Ry
     estimated scf accuracy    <       0.00291869 Ry

     iteration # 13     ecut=    45.00 Ry     beta= 0.30
     Davidson diagonalization with overlap
     ethr =  1.60E-06,  avg # of iterations = 10.0

     negative rho (up, down):  1.462E-01 0.000E+00

     total cpu time spent up to now is     1212.1 secs

     total energy              =   -5168.91530766 Ry
     Harris-Foulkes estimate   =   -5168.91573491 Ry
     estimated scf accuracy    <       0.00138835 Ry

     iteration # 14     ecut=    45.00 Ry     beta= 0.30
     Davidson diagonalization with overlap
     ethr =  9.44E-07,  avg # of iterations =  4.0

     negative rho (up, down):  1.189E-01 0.000E+00

     total cpu time spent up to now is     1292.2 secs

     total energy              =   -5168.91474700 Ry
     Harris-Foulkes estimate   =   -5168.91536765 Ry
     estimated scf accuracy    <       0.00077035 Ry

     iteration # 15     ecut=    45.00 Ry     beta= 0.30
     Davidson diagonalization with overlap
     ethr =  5.24E-07,  avg # of iterations =  6.0

     negative rho (up, down):  1.006E-01 0.000E+00

     total cpu time spent up to now is     1374.4 secs

     total energy              =   -5168.91450571 Ry
     Harris-Foulkes estimate   =   -5168.91478508 Ry
     estimated scf accuracy    <       0.00038495 Ry

     iteration # 16     ecut=    45.00 Ry     beta= 0.30
     Davidson diagonalization with overlap
     ethr =  2.62E-07,  avg # of iterations =  3.0

     negative rho (up, down):  7.801E-02 0.000E+00

     total cpu time spent up to now is     1453.7 secs

     total energy              =   -5168.91432489 Ry
     Harris-Foulkes estimate   =   -5168.91451185 Ry
     estimated scf accuracy    <       0.00030071 Ry

     iteration # 17     ecut=    45.00 Ry     beta= 0.30
     Davidson diagonalization with overlap
     ethr =  2.05E-07,  avg # of iterations =  7.0

     negative rho (up, down):  6.849E-02 0.000E+00

     total cpu time spent up to now is     1537.2 secs

     total energy              =   -5168.91436032 Ry
     Harris-Foulkes estimate   =   -5168.91434817 Ry
     estimated scf accuracy    <       0.00016659 Ry

     iteration # 18     ecut=    45.00 Ry     beta= 0.30
     Davidson diagonalization with overlap
     ethr =  1.13E-07,  avg # of iterations =  1.0

     negative rho (up, down):  5.754E-02 0.000E+00

     total cpu time spent up to now is     1615.1 secs

     total energy              =   -5168.91440486 Ry
     Harris-Foulkes estimate   =   -5168.91436431 Ry
     estimated scf accuracy    <       0.00013517 Ry

     iteration # 19     ecut=    45.00 Ry     beta= 0.30
     Davidson diagonalization with overlap
     ethr =  9.20E-08,  avg # of iterations =  1.0

     negative rho (up, down):  4.875E-02 0.000E+00

     total cpu time spent up to now is     1693.2 secs

     total energy              =   -5168.91441188 Ry
     Harris-Foulkes estimate   =   -5168.91440709 Ry
     estimated scf accuracy    <       0.00010356 Ry

     iteration # 20     ecut=    45.00 Ry     beta= 0.30
     Davidson diagonalization with overlap
     ethr =  7.04E-08,  avg # of iterations =  1.0

     negative rho (up, down):  4.066E-02 0.000E+00

     total cpu time spent up to now is     1770.8 secs

     total energy              =   -5168.91433282 Ry
     Harris-Foulkes estimate   =   -5168.91441315 Ry
     estimated scf accuracy    <       0.00007929 Ry

     iteration # 21     ecut=    45.00 Ry     beta= 0.30
     Davidson diagonalization with overlap
     ethr =  5.39E-08,  avg # of iterations =  5.0

     negative rho (up, down):  2.279E-02 0.000E+00

     total cpu time spent up to now is     1851.0 secs

     total energy              =   -5168.91432751 Ry
     Harris-Foulkes estimate   =   -5168.91433517 Ry
     estimated scf accuracy    <       0.00006227 Ry

     iteration # 22     ecut=    45.00 Ry     beta= 0.30
     Davidson diagonalization with overlap
     ethr =  4.24E-08,  avg # of iterations =  8.0

     negative rho (up, down):  2.399E-02 0.000E+00

     total cpu time spent up to now is     1936.9 secs

     total energy              =   -5168.91429736 Ry
     Harris-Foulkes estimate   =   -5168.91434090 Ry
     estimated scf accuracy    <       0.00008005 Ry

     iteration # 23     ecut=    45.00 Ry     beta= 0.30
     Davidson diagonalization with overlap
     ethr =  4.24E-08,  avg # of iterations =  4.0

     negative rho (up, down):  1.961E-02 0.000E+00

     total cpu time spent up to now is     2020.6 secs

     total energy              =   -5168.91435053 Ry
     Harris-Foulkes estimate   =   -5168.91431220 Ry
     estimated scf accuracy    <       0.00002542 Ry

     iteration # 24     ecut=    45.00 Ry     beta= 0.30
     Davidson diagonalization with overlap
     ethr =  1.73E-08,  avg # of iterations =  3.0

     negative rho (up, down):  1.564E-02 0.000E+00

     total cpu time spent up to now is     2100.9 secs

     total energy              =   -5168.91437484 Ry
     Harris-Foulkes estimate   =   -5168.91435263 Ry
     estimated scf accuracy    <       0.00001436 Ry

     iteration # 25     ecut=    45.00 Ry     beta= 0.30
     Davidson diagonalization with overlap
     ethr =  9.77E-09,  avg # of iterations =  3.0

     negative rho (up, down):  1.315E-02 0.000E+00

     total cpu time spent up to now is     2181.5 secs

     total energy              =   -5168.91437323 Ry
     Harris-Foulkes estimate   =   -5168.91437638 Ry
     estimated scf accuracy    <       0.00000924 Ry

     iteration # 26     ecut=    45.00 Ry     beta= 0.30
     Davidson diagonalization with overlap
     ethr =  6.29E-09,  avg # of iterations =  4.0

     negative rho (up, down):  1.227E-02 0.000E+00

     total cpu time spent up to now is     2263.4 secs

     total energy              =   -5168.91437539 Ry
     Harris-Foulkes estimate   =   -5168.91437459 Ry
     estimated scf accuracy    <       0.00000476 Ry

     iteration # 27     ecut=    45.00 Ry     beta= 0.30
     Davidson diagonalization with overlap
     ethr =  3.24E-09,  avg # of iterations =  1.0

     negative rho (up, down):  8.265E-03 0.000E+00

     total cpu time spent up to now is     2341.7 secs

     total energy              =   -5168.91437669 Ry
     Harris-Foulkes estimate   =   -5168.91437545 Ry
     estimated scf accuracy    <       0.00000412 Ry

     iteration # 28     ecut=    45.00 Ry     beta= 0.30
     Davidson diagonalization with overlap
     ethr =  2.80E-09,  avg # of iterations =  3.0

     negative rho (up, down):  7.913E-03 0.000E+00

     total cpu time spent up to now is     2422.8 secs

     total energy              =   -5168.91437671 Ry
     Harris-Foulkes estimate   =   -5168.91437714 Ry
     estimated scf accuracy    <       0.00000236 Ry

     iteration # 29     ecut=    45.00 Ry     beta= 0.30
     Davidson diagonalization with overlap
     ethr =  1.60E-09,  avg # of iterations =  1.0

     negative rho (up, down):  6.001E-03 0.000E+00

     total cpu time spent up to now is     2500.6 secs

     total energy              =   -5168.91437699 Ry
     Harris-Foulkes estimate   =   -5168.91437675 Ry
     estimated scf accuracy    <       0.00000173 Ry

     iteration # 30     ecut=    45.00 Ry     beta= 0.30
     Davidson diagonalization with overlap
     ethr =  1.18E-09,  avg # of iterations =  4.0

     negative rho (up, down):  3.949E-03 0.000E+00

     total cpu time spent up to now is     2585.3 secs

     total energy              =   -5168.91437711 Ry
     Harris-Foulkes estimate   =   -5168.91437745 Ry
     estimated scf accuracy    <       0.00000170 Ry

     iteration # 31     ecut=    45.00 Ry     beta= 0.30
     Davidson diagonalization with overlap
     ethr =  1.16E-09,  avg # of iterations =  3.0

     negative rho (up, down):  3.398E-03 0.000E+00

     total cpu time spent up to now is     2665.5 secs

     total energy              =   -5168.91437711 Ry
     Harris-Foulkes estimate   =   -5168.91437733 Ry
     estimated scf accuracy    <       0.00000038 Ry

     iteration # 32     ecut=    45.00 Ry     beta= 0.30
     Davidson diagonalization with overlap
     ethr =  2.56E-10,  avg # of iterations =  3.0

     negative rho (up, down):  2.857E-03 0.000E+00

     total cpu time spent up to now is     2745.5 secs

     total energy              =   -5168.91437714 Ry
     Harris-Foulkes estimate   =   -5168.91437715 Ry
     estimated scf accuracy    <       0.00000018 Ry

     iteration # 33     ecut=    45.00 Ry     beta= 0.30
     Davidson diagonalization with overlap
     ethr =  1.20E-10,  avg # of iterations =  3.0

     negative rho (up, down):  2.173E-03 0.000E+00

     total cpu time spent up to now is     2828.0 secs

     total energy              =   -5168.91437723 Ry
     Harris-Foulkes estimate   =   -5168.91437717 Ry
     estimated scf accuracy    <       0.00000011 Ry

     iteration # 34     ecut=    45.00 Ry     beta= 0.30
     Davidson diagonalization with overlap
     ethr =  7.65E-11,  avg # of iterations =  2.0

     negative rho (up, down):  2.067E-03 0.000E+00

     total cpu time spent up to now is     2907.5 secs

     total energy              =   -5168.91437718 Ry
     Harris-Foulkes estimate   =   -5168.91437724 Ry
     estimated scf accuracy    <       0.00000004 Ry

     iteration # 35     ecut=    45.00 Ry     beta= 0.30
     Davidson diagonalization with overlap
     ethr =  2.76E-11,  avg # of iterations =  3.0

     negative rho (up, down):  2.047E-03 0.000E+00

     total cpu time spent up to now is     2987.0 secs

     total energy              =   -5168.91437707 Ry
     Harris-Foulkes estimate   =   -5168.91437718 Ry
     estimated scf accuracy    <       0.00000003 Ry

     iteration # 36     ecut=    45.00 Ry     beta= 0.30
     Davidson diagonalization with overlap
     ethr =  2.15E-11,  avg # of iterations =  3.0

     negative rho (up, down):  1.815E-03 0.000E+00

     total cpu time spent up to now is     3067.1 secs

     total energy              =   -5168.91437706 Ry
     Harris-Foulkes estimate   =   -5168.91437707 Ry
     estimated scf accuracy    <       0.00000002 Ry

     iteration # 37     ecut=    45.00 Ry     beta= 0.30
     Davidson diagonalization with overlap
     ethr =  1.14E-11,  avg # of iterations =  2.0

     negative rho (up, down):  1.755E-03 0.000E+00

     total cpu time spent up to now is     3139.1 secs

     End of self-consistent calculation

          k = 0.0000 0.0000 0.0000 (232063 PWs)   bands (ev):

   -27.9093 -27.9093 -27.9092 -27.9092 -27.9092 -17.3136 -10.8441 -10.8438
   -10.8433  -9.2042  -9.2040  -9.2039  -9.2036  -9.2032  -9.1970  -9.1969
    -9.1965  -9.1961  -8.9217  -8.9217  -8.9214  -8.8328  -8.7946  -8.7943
    -8.7940  -8.7938  -8.5273  -8.5270  -8.5264  -8.3392  -8.3388  -8.3384
    -8.3378  -8.3375  -8.0654  -8.0652  -8.0646  -8.0641  -8.0636  -7.8584
    -7.8582  -7.8579  -7.8575  -7.8574  -7.8451  -7.8450  -7.8450  -7.5919
    -7.5916  -7.5915  -7.5913  -7.4035  -7.4034  -7.4034  -7.4032  -7.4031
    -7.2984  -7.2981  -7.2978  -7.2977  -7.2836  -7.2836  -7.2835  -7.0145
    -7.0142  -7.0141  -6.6228  -6.6225  -6.6224  -5.5399  -4.0927  -4.0924
    -4.0922  -4.0921  -4.0916  -2.7462  -2.7462  -2.7461  -1.6428  -1.6428
    -1.6425  -1.4083  -1.4078  -1.4075  -1.4071  -0.6628  -0.1012  -0.1009
    -0.0534

     occupation numbers 
     1.0000   1.0000   1.0000   1.0000   1.0000   1.0000   1.0000   1.0000
     1.0000   1.0000   1.0000   1.0000   1.0000   1.0000   1.0000   1.0000
     1.0000   1.0000   1.0000   1.0000   1.0000   1.0000   1.0000   1.0000
     1.0000   1.0000   1.0000   1.0000   1.0000   1.0000   1.0000   1.0000
     1.0000   1.0000   1.0000   1.0000   1.0000   1.0000   1.0000   1.0000
     1.0000   1.0000   1.0000   1.0000   1.0000   1.0000   1.0000   1.0000
     1.0000   1.0000   1.0000   1.0000   1.0000   1.0000   1.0000   1.0000
     1.0000   1.0000   1.0000   1.0000   1.0000   1.0000   1.0000   1.0000
     1.0000   1.0000   1.0000   1.0000   1.0000   1.0000   0.7013   0.7004
     0.7000   0.6997   0.6985   0.0000   0.0000   0.0000   0.0000   0.0000
     0.0000   0.0000   0.0000   0.0000   0.0000   0.0000   0.0000   0.0000
     0.0000

     the Fermi energy is    -3.9705 ev

!    total energy              =   -5168.91437706 Ry
     Harris-Foulkes estimate   =   -5168.91437707 Ry
     estimated scf accuracy    <          7.9E-09 Ry

     total all-electron energy =   -170647.965039 Ry

     The total energy is the sum of the following terms:

     one-electron contribution =   -5275.43157709 Ry
     hartree contribution      =    2727.39579079 Ry
     xc contribution           =    -460.33747700 Ry
     ewald contribution        =    1746.10492323 Ry
     one-center paw contrib.   =   -3906.62194695 Ry
      -> PAW hartree energy AE =      67.60680471 Ry
      -> PAW hartree energy PS =     -67.46633779 Ry
      -> PAW xc energy AE      =    -297.91799611 Ry
      -> PAW xc energy PS      =      35.27712499 Ry
      -> total E_H with PAW    =    2727.53625771 Ry
      -> total E_XC with PAW   =    -722.97834812 Ry
     smearing contrib. (-TS)   =      -0.02409003 Ry

     convergence has been achieved in  37 iterations

     negative rho (up, down):  1.755E-03 0.000E+00

     Forces acting on atoms (cartesian axes, Ry/au):

     atom    1 type  1   force =    -0.03629227   -0.03604310    0.02250361
     atom    2 type  1   force =    -0.02668651    0.01688117    0.04614231
     atom    3 type  1   force =     0.05419334   -0.01228767    0.00562593
     atom    4 type  1   force =     0.01545772   -0.02400107    0.04791996
     atom    5 type  1   force =     0.02654391   -0.01689819   -0.04608185
     atom    6 type  1   force =     0.03615654    0.03609438   -0.02262993
     atom    7 type  1   force =    -0.02918323   -0.03158286   -0.03552064
     atom    8 type  2   force =    -0.00000621   -0.00000822   -0.00001742
     atom    9 type  1   force =    -0.01373063    0.05410699    0.00245673
     atom   10 type  1   force =     0.02924971    0.03146666    0.03559446
     atom   11 type  1   force =    -0.05418267    0.01224468   -0.00547357
     atom   12 type  1   force =    -0.01532708    0.02411985   -0.04793049
     atom   13 type  1   force =     0.01380737   -0.05409261   -0.00258908
     The non-local contrib.  to forces
     atom    1 type  1   force =    -0.04566798   -0.04545202    0.02833392
     atom    2 type  1   force =    -0.03378026    0.02118454    0.05795016
     atom    3 type  1   force =     0.06823873   -0.01568603    0.00720101
     atom    4 type  1   force =     0.01988908   -0.02985682    0.06061073
     atom    5 type  1   force =     0.03365265   -0.02130700   -0.05807047
     atom    6 type  1   force =     0.04536024    0.04558710   -0.02862725
     atom    7 type  1   force =    -0.03686594   -0.03967821   -0.04503321
     atom    8 type  2   force =     0.00000916    0.00000424   -0.00002403
     atom    9 type  1   force =    -0.01711769    0.06817632    0.00315938
     atom   10 type  1   force =     0.03698156    0.03945459    0.04509093
     atom   11 type  1   force =    -0.06830625    0.01561619   -0.00696492
     atom   12 type  1   force =    -0.01957845    0.03007497   -0.06060049
     atom   13 type  1   force =     0.01724057   -0.06810964   -0.00352171
     The ionic contribution  to forces
     atom    1 type  1   force =   -31.93797599  -31.79274209   19.90927699
     atom    2 type  1   force =   -23.47769397   14.90508310   40.65473924
     atom    3 type  1   force =    47.77083561  -10.83636199    4.88264719
     atom    4 type  1   force =    13.57375702  -21.28212681   42.28856092
     atom    5 type  1   force =    23.47638155  -14.90371230  -40.65252046
     atom    6 type  1   force =    31.93574444   31.79831231  -19.90283241
     atom    7 type  1   force =   -25.80997519  -27.85861506  -31.38230036
     atom    8 type  2   force =     0.00115820    0.00008145   -0.01075276
     atom    9 type  1   force =   -12.13979444   47.65722422    2.21935745
     atom   10 type  1   force =    25.81249407   27.85683455   31.38413518
     atom   11 type  1   force =   -47.77182657   10.82795115   -4.88278386
     atom   12 type  1   force =   -13.56524892   21.28774910  -42.28725281
     atom   13 type  1   force =    12.13214419  -47.65967761   -2.22027431
     The local contribution  to forces
     atom    1 type  1   force =    31.93153543   31.78643821  -19.90525660
     atom    2 type  1   force =    23.47317456  -14.90202638  -40.64643402
     atom    3 type  1   force =   -47.76124457   10.83437914   -4.88180038
     atom    4 type  1   force =   -13.57144889   21.27746828  -42.28030352
     atom    5 type  1   force =   -23.47186721   14.90074325   40.64439320
     atom    6 type  1   force =   -31.92917041  -31.79205657   19.89898142
     atom    7 type  1   force =    25.80487467   27.85294970   31.37628157
     atom    8 type  2   force =    -0.00118361   -0.00008500    0.01076096
     atom    9 type  1   force =    12.13718109  -47.64769061   -2.21897586
     atom   10 type  1   force =   -25.80742916  -27.85104682  -31.37809173
     atom   11 type  1   force =    47.76231001  -10.82596279    4.88186024
     atom   12 type  1   force =    13.56279624  -21.28318108   42.27900459
     atom   13 type  1   force =   -12.12959427   47.65006832    2.22008336
     The core correction contribution to forces
     atom    1 type  1   force =     0.01582836    0.01574323   -0.00986427
     atom    2 type  1   force =     0.01162295   -0.00737896   -0.02015159
     atom    3 type  1   force =    -0.02367332    0.00540114   -0.00241204
     atom    4 type  1   force =    -0.00675308    0.01053132   -0.02097850
     atom    5 type  1   force =    -0.01164820    0.00740599    0.02016356
     atom    6 type  1   force =    -0.01580299   -0.01576335    0.00987011
     atom    7 type  1   force =     0.01278009    0.01379292    0.01556624
     atom    8 type  2   force =     0.00000047    0.00000001   -0.00000003
     atom    9 type  1   force =     0.00600522   -0.02364040   -0.00109147
     atom   10 type  1   force =    -0.01280806   -0.01379256   -0.01556186
     atom   11 type  1   force =     0.02366979   -0.00537028    0.00241872
     atom   12 type  1   force =     0.00670159   -0.01053011    0.02096126
     atom   13 type  1   force =    -0.00600383    0.02367639    0.00114289
     The Hubbard contrib.    to forces
     atom    1 type  1   force =     0.00000000    0.00000000    0.00000000
     atom    2 type  1   force =     0.00000000    0.00000000    0.00000000
     atom    3 type  1   force =     0.00000000    0.00000000    0.00000000
     atom    4 type  1   force =     0.00000000    0.00000000    0.00000000
     atom    5 type  1   force =     0.00000000    0.00000000    0.00000000
     atom    6 type  1   force =     0.00000000    0.00000000    0.00000000
     atom    7 type  1   force =     0.00000000    0.00000000    0.00000000
     atom    8 type  2   force =     0.00000000    0.00000000    0.00000000
     atom    9 type  1   force =     0.00000000    0.00000000    0.00000000
     atom   10 type  1   force =     0.00000000    0.00000000    0.00000000
     atom   11 type  1   force =     0.00000000    0.00000000    0.00000000
     atom   12 type  1   force =     0.00000000    0.00000000    0.00000000
     atom   13 type  1   force =     0.00000000    0.00000000    0.00000000
     The SCF correction term to forces
     atom    1 type  1   force =    -0.00001803   -0.00002412    0.00001846
     atom    2 type  1   force =    -0.00001572    0.00002518    0.00004339
     atom    3 type  1   force =     0.00003095   -0.00001362   -0.00000498
     atom    4 type  1   force =     0.00000765   -0.00001073    0.00003521
     atom    5 type  1   force =     0.00001918   -0.00002183   -0.00004280
     atom    6 type  1   force =     0.00001933    0.00002120   -0.00001693
     atom    7 type  1   force =    -0.00000279   -0.00002589   -0.00003001
     atom    8 type  2   force =     0.00000364   -0.00000260    0.00000331
     atom    9 type  1   force =    -0.00001074    0.00004377    0.00001211
     atom   10 type  1   force =     0.00000537    0.00002320    0.00002681
     atom   11 type  1   force =    -0.00003560    0.00001672    0.00000112
     atom   12 type  1   force =    -0.00000349    0.00001327   -0.00003817
     atom   13 type  1   force =     0.00001477   -0.00004375   -0.00001443

     Total force =     0.193428     Total SCF correction =     0.000145

     BFGS Geometry Optimization

     number of scf cycles    =   1
     number of bfgs steps    =   0

     energy   new            =   -5168.9143770578 Ry

     new trust radius        =       0.0559129326 bohr
     new conv_thr            =       0.0000000100 Ry


ATOMIC_POSITIONS (bohr)
Ag            4.5156350423        4.4161569225        8.4882036612
Ag            5.4085865980        9.3412833885       10.6780284054
Ag           12.9265998360        6.6281581731        6.9021690232
Ag            9.3130913940        5.5244014668       10.8510713368
Ag           10.3596558373        6.1989557583        2.0984584668
Ag           11.2530087548       11.1235443277        4.2905704297
Ag            5.1610416707        4.8316180550        3.0781815789
Bi            7.8836129743        7.7699299164        6.3879190812
Ag            6.6036183773       12.8003686700        6.6229178459
Ag           10.6053812244       10.7089555892        9.6981201030
Ag            2.8403879463        8.9114383605        5.8733144661
Ag            6.4530459148       10.0148845977        1.9255956397
Ag            9.1620944256        2.7392648203        6.1556900072



     Writing output data file ./tmp/ag12Bic.save/
     NEW-OLD atomic charge density approx. for the potential

     Check: negative core charge=   -0.000001

     negative rho (up, down):  1.767E-03 0.000E+00

     total cpu time spent up to now is     3207.1 secs

     Self-consistent Calculation

     iteration #  1     ecut=    45.00 Ry     beta= 0.30
     Davidson diagonalization with overlap
     ethr =  1.00E-06,  avg # of iterations = 12.0

     negative rho (up, down):  1.708E-03 0.000E+00

     total cpu time spent up to now is     3324.5 secs

     total energy              =   -5168.94483255 Ry
     Harris-Foulkes estimate   =   -5169.30422024 Ry
     estimated scf accuracy    <       0.00149938 Ry

     iteration #  2     ecut=    45.00 Ry     beta= 0.30
     Davidson diagonalization with overlap
     ethr =  1.02E-06,  avg # of iterations =  1.0

     negative rho (up, down):  1.871E-03 0.000E+00

     total cpu time spent up to now is     3402.2 secs

     total energy              =   -5168.94676471 Ry
     Harris-Foulkes estimate   =   -5168.94486712 Ry
     estimated scf accuracy    <       0.00087443 Ry

     iteration #  3     ecut=    45.00 Ry     beta= 0.30
     Davidson diagonalization with overlap
     ethr =  5.95E-07,  avg # of iterations =  3.0

     negative rho (up, down):  1.542E-03 0.000E+00

     total cpu time spent up to now is     3488.9 secs

     total energy              =   -5168.94706145 Ry
     Harris-Foulkes estimate   =   -5168.94713149 Ry
     estimated scf accuracy    <       0.00010180 Ry

     iteration #  4     ecut=    45.00 Ry     beta= 0.30
     Davidson diagonalization with overlap
     ethr =  6.93E-08,  avg # of iterations =  3.0

     negative rho (up, down):  1.313E-03 0.000E+00

     total cpu time spent up to now is     3574.2 secs

     total energy              =   -5168.94713283 Ry
     Harris-Foulkes estimate   =   -5168.94709233 Ry
     estimated scf accuracy    <       0.00002751 Ry

     iteration #  5     ecut=    45.00 Ry     beta= 0.30
     Davidson diagonalization with overlap
     ethr =  1.87E-08,  avg # of iterations =  3.0

     negative rho (up, down):  1.141E-03 0.000E+00

     total cpu time spent up to now is     3658.4 secs

     total energy              =   -5168.94714111 Ry
     Harris-Foulkes estimate   =   -5168.94713822 Ry
     estimated scf accuracy    <       0.00000838 Ry

     iteration #  6     ecut=    45.00 Ry     beta= 0.30
     Davidson diagonalization with overlap
     ethr =  5.70E-09,  avg # of iterations =  2.0

     negative rho (up, down):  9.839E-04 0.000E+00

     total cpu time spent up to now is     3737.0 secs

     total energy              =   -5168.94714549 Ry
     Harris-Foulkes estimate   =   -5168.94714157 Ry
     estimated scf accuracy    <       0.00000715 Ry

     iteration #  7     ecut=    45.00 Ry     beta= 0.30
     Davidson diagonalization with overlap
     ethr =  4.86E-09,  avg # of iterations =  2.0

     negative rho (up, down):  7.735E-04 0.000E+00

     total cpu time spent up to now is     3815.3 secs

     total energy              =   -5168.94714255 Ry
     Harris-Foulkes estimate   =   -5168.94714580 Ry
     estimated scf accuracy    <       0.00000761 Ry

     iteration #  8     ecut=    45.00 Ry     beta= 0.30
     Davidson diagonalization with overlap
     ethr =  4.86E-09,  avg # of iterations =  3.0

     negative rho (up, down):  6.325E-04 0.000E+00

     total cpu time spent up to now is     3898.1 secs

     total energy              =   -5168.94714736 Ry
     Harris-Foulkes estimate   =   -5168.94714377 Ry
     estimated scf accuracy    <       0.00000231 Ry

     iteration #  9     ecut=    45.00 Ry     beta= 0.30
     Davidson diagonalization with overlap
     ethr =  1.57E-09,  avg # of iterations =  2.0

     negative rho (up, down):  4.592E-04 0.000E+00

     total cpu time spent up to now is     3978.6 secs

     total energy              =   -5168.94714668 Ry
     Harris-Foulkes estimate   =   -5168.94714756 Ry
     estimated scf accuracy    <       0.00000198 Ry

     iteration # 10     ecut=    45.00 Ry     beta= 0.30
     Davidson diagonalization with overlap
     ethr =  1.35E-09,  avg # of iterations =  3.0

     negative rho (up, down):  5.467E-04 0.000E+00

     total cpu time spent up to now is     4059.0 secs

     total energy              =   -5168.94714566 Ry
     Harris-Foulkes estimate   =   -5168.94714680 Ry
     estimated scf accuracy    <       0.00000128 Ry

     iteration # 11     ecut=    45.00 Ry     beta= 0.30
     Davidson diagonalization with overlap
     ethr =  8.71E-10,  avg # of iterations =  3.0

     negative rho (up, down):  9.767E-04 0.000E+00

     total cpu time spent up to now is     4140.6 secs

     total energy              =   -5168.94714570 Ry
     Harris-Foulkes estimate   =   -5168.94714582 Ry
     estimated scf accuracy    <       0.00000098 Ry

     iteration # 12     ecut=    45.00 Ry     beta= 0.30
     Davidson diagonalization with overlap
     ethr =  6.68E-10,  avg # of iterations =  3.0

     negative rho (up, down):  2.003E-03 0.000E+00

     total cpu time spent up to now is     4223.9 secs

     total energy              =   -5168.94714412 Ry
     Harris-Foulkes estimate   =   -5168.94714588 Ry
     estimated scf accuracy    <       0.00000136 Ry

     iteration # 13     ecut=    45.00 Ry     beta= 0.30
     Davidson diagonalization with overlap
     ethr =  6.68E-10,  avg # of iterations =  3.0

     negative rho (up, down):  1.962E-03 0.000E+00

     total cpu time spent up to now is     4310.2 secs

     total energy              =   -5168.94714490 Ry
     Harris-Foulkes estimate   =   -5168.94714429 Ry
     estimated scf accuracy    <       0.00000057 Ry

     iteration # 14     ecut=    45.00 Ry     beta= 0.30
     Davidson diagonalization with overlap
     ethr =  3.89E-10,  avg # of iterations =  2.0

     negative rho (up, down):  2.367E-03 0.000E+00

     total cpu time spent up to now is     4394.6 secs

     total energy              =   -5168.94714465 Ry
     Harris-Foulkes estimate   =   -5168.94714503 Ry
     estimated scf accuracy    <       0.00000035 Ry

     iteration # 15     ecut=    45.00 Ry     beta= 0.30
     Davidson diagonalization with overlap
     ethr =  2.37E-10,  avg # of iterations =  3.0

     negative rho (up, down):  2.348E-03 0.000E+00

     total cpu time spent up to now is     4481.3 secs

     total energy              =   -5168.94714470 Ry
     Harris-Foulkes estimate   =   -5168.94714472 Ry
     estimated scf accuracy    <       0.00000022 Ry

     iteration # 16     ecut=    45.00 Ry     beta= 0.30
     Davidson diagonalization with overlap
     ethr =  1.51E-10,  avg # of iterations =  1.0

     negative rho (up, down):  2.285E-03 0.000E+00

     total cpu time spent up to now is     4559.0 secs

     total energy              =   -5168.94714415 Ry
     Harris-Foulkes estimate   =   -5168.94714470 Ry
     estimated scf accuracy    <       0.00000017 Ry

     iteration # 17     ecut=    45.00 Ry     beta= 0.30
     Davidson diagonalization with overlap
     ethr =  1.17E-10,  avg # of iterations =  3.0

     negative rho (up, down):  2.321E-03 0.000E+00

     total cpu time spent up to now is     4644.8 secs

     total energy              =   -5168.94714437 Ry
     Harris-Foulkes estimate   =   -5168.94714421 Ry
     estimated scf accuracy    <       0.00000020 Ry

     iteration # 18     ecut=    45.00 Ry     beta= 0.30
     Davidson diagonalization with overlap
     ethr =  1.17E-10,  avg # of iterations =  2.0

     negative rho (up, down):  2.171E-03 0.000E+00

     total cpu time spent up to now is     4728.6 secs

     total energy              =   -5168.94714429 Ry
     Harris-Foulkes estimate   =   -5168.94714440 Ry
     estimated scf accuracy    <       0.00000007 Ry

     iteration # 19     ecut=    45.00 Ry     beta= 0.30
     Davidson diagonalization with overlap
     ethr =  4.69E-11,  avg # of iterations =  1.0

     negative rho (up, down):  2.020E-03 0.000E+00

     total cpu time spent up to now is     4806.6 secs

     total energy              =   -5168.94714406 Ry
     Harris-Foulkes estimate   =   -5168.94714429 Ry
     estimated scf accuracy    <       0.00000005 Ry

     iteration # 20     ecut=    45.00 Ry     beta= 0.30
     Davidson diagonalization with overlap
     ethr =  3.50E-11,  avg # of iterations =  3.0

     negative rho (up, down):  1.984E-03 0.000E+00

     total cpu time spent up to now is     4886.9 secs

     total energy              =   -5168.94714396 Ry
     Harris-Foulkes estimate   =   -5168.94714406 Ry
     estimated scf accuracy    <       0.00000004 Ry

     iteration # 21     ecut=    45.00 Ry     beta= 0.30
     Davidson diagonalization with overlap
     ethr =  2.49E-11,  avg # of iterations =  2.0

     negative rho (up, down):  1.944E-03 0.000E+00

     total cpu time spent up to now is     4965.2 secs

     total energy              =   -5168.94714394 Ry
     Harris-Foulkes estimate   =   -5168.94714396 Ry
     estimated scf accuracy    <       0.00000003 Ry

     iteration # 22     ecut=    45.00 Ry     beta= 0.30
     Davidson diagonalization with overlap
     ethr =  2.24E-11,  avg # of iterations =  1.0

     negative rho (up, down):  1.891E-03 0.000E+00

     total cpu time spent up to now is     5043.2 secs

     total energy              =   -5168.94714390 Ry
     Harris-Foulkes estimate   =   -5168.94714395 Ry
     estimated scf accuracy    <       0.00000002 Ry

     iteration # 23     ecut=    45.00 Ry     beta= 0.30
     Davidson diagonalization with overlap
     ethr =  1.66E-11,  avg # of iterations =  3.0

     negative rho (up, down):  1.804E-03 0.000E+00

     total cpu time spent up to now is     5123.7 secs

     total energy              =   -5168.94714398 Ry
     Harris-Foulkes estimate   =   -5168.94714390 Ry
     estimated scf accuracy    <       0.00000002 Ry

     iteration # 24     ecut=    45.00 Ry     beta= 0.30
     Davidson diagonalization with overlap
     ethr =  1.23E-11,  avg # of iterations =  2.0

     negative rho (up, down):  1.696E-03 0.000E+00

     total cpu time spent up to now is     5203.2 secs

     total energy              =   -5168.94714403 Ry
     Harris-Foulkes estimate   =   -5168.94714398 Ry
     estimated scf accuracy    <       0.00000001 Ry

     iteration # 25     ecut=    45.00 Ry     beta= 0.30
     Davidson diagonalization with overlap
     ethr =  9.49E-12,  avg # of iterations =  2.0

     negative rho (up, down):  1.749E-03 0.000E+00

     total cpu time spent up to now is     5276.1 secs

     End of self-consistent calculation

          k = 0.0000 0.0000 0.0000 (232063 PWs)   bands (ev):

   -27.8273 -27.8273 -27.8272 -27.8272 -27.8272 -17.1004 -10.6366 -10.6363
   -10.6359  -9.0671  -9.0669  -9.0669  -9.0667  -9.0663  -9.0554  -9.0553
    -9.0550  -9.0546  -8.7972  -8.7972  -8.7970  -8.7087  -8.6768  -8.6765
    -8.6763  -8.6761  -8.4227  -8.4225  -8.4220  -8.2499  -8.2495  -8.2491
    -8.2486  -8.2484  -7.9912  -7.9910  -7.9904  -7.9900  -7.9895  -7.7985
    -7.7984  -7.7981  -7.7977  -7.7976  -7.7835  -7.7835  -7.7834  -7.5424
    -7.5422  -7.5421  -7.5419  -7.3663  -7.3662  -7.3662  -7.3660  -7.3660
    -7.2635  -7.2632  -7.2628  -7.2627  -7.2546  -7.2545  -7.2545  -6.9992
    -6.9990  -6.9989  -6.5921  -6.5918  -6.5917  -5.5860  -4.0767  -4.0764
    -4.0762  -4.0761  -4.0756  -2.7631  -2.7630  -2.7630  -1.6895  -1.6895
    -1.6892  -1.4045  -1.4041  -1.4038  -1.4034  -0.6911  -0.1123  -0.1121
    -0.0718

     occupation numbers 
     1.0000   1.0000   1.0000   1.0000   1.0000   1.0000   1.0000   1.0000
     1.0000   1.0000   1.0000   1.0000   1.0000   1.0000   1.0000   1.0000
     1.0000   1.0000   1.0000   1.0000   1.0000   1.0000   1.0000   1.0000
     1.0000   1.0000   1.0000   1.0000   1.0000   1.0000   1.0000   1.0000
     1.0000   1.0000   1.0000   1.0000   1.0000   1.0000   1.0000   1.0000
     1.0000   1.0000   1.0000   1.0000   1.0000   1.0000   1.0000   1.0000
     1.0000   1.0000   1.0000   1.0000   1.0000   1.0000   1.0000   1.0000
     1.0000   1.0000   1.0000   1.0000   1.0000   1.0000   1.0000   1.0000
     1.0000   1.0000   1.0000   1.0000   1.0000   1.0000   0.7013   0.7005
     0.7001   0.6997   0.6985   0.0000   0.0000   0.0000   0.0000   0.0000
     0.0000   0.0000   0.0000   0.0000   0.0000   0.0000   0.0000   0.0000
     0.0000

     the Fermi energy is    -3.9545 ev

!    total energy              =   -5168.94714398 Ry
     Harris-Foulkes estimate   =   -5168.94714403 Ry
     estimated scf accuracy    <          6.5E-09 Ry

     total all-electron energy =   -170647.997806 Ry

     The total energy is the sum of the following terms:

     one-electron contribution =   -5211.16625922 Ry
     hartree contribution      =    2695.57537706 Ry
     xc contribution           =    -460.20252753 Ry
     ewald contribution        =    1713.46855657 Ry
     one-center paw contrib.   =   -3906.59820081 Ry
      -> PAW hartree energy AE =      67.41769757 Ry
      -> PAW hartree energy PS =     -67.27580629 Ry
      -> PAW xc energy AE      =    -297.90306150 Ry
      -> PAW xc energy PS      =      35.26218027 Ry
      -> total E_H with PAW    =    2695.71726834 Ry
      -> total E_XC with PAW   =    -722.84340876 Ry
     smearing contrib. (-TS)   =      -0.02409003 Ry

     convergence has been achieved in  25 iterations

     negative rho (up, down):  1.749E-03 0.000E+00

     Forces acting on atoms (cartesian axes, Ry/au):

     atom    1 type  1   force =    -0.02749852   -0.02730591    0.01706875
     atom    2 type  1   force =    -0.02022098    0.01278249    0.03495201
     atom    3 type  1   force =     0.04106209   -0.00933459    0.00424438
     atom    4 type  1   force =     0.01173617   -0.01818684    0.03631971
     atom    5 type  1   force =     0.02015206   -0.01281942   -0.03491938
     atom    6 type  1   force =     0.02737680    0.02736665   -0.01714517
     atom    7 type  1   force =    -0.02215382   -0.02396708   -0.02692945
     atom    8 type  2   force =    -0.00001435    0.00000343    0.00000611
     atom    9 type  1   force =    -0.01043180    0.04100235    0.00186394
     atom   10 type  1   force =     0.02220234    0.02388616    0.02699797
     atom   11 type  1   force =    -0.04107407    0.00930048   -0.00415486
     atom   12 type  1   force =    -0.01160277    0.01830590   -0.03632660
     atom   13 type  1   force =     0.01046686   -0.04103362   -0.00197742
     The non-local contrib.  to forces
     atom    1 type  1   force =    -0.05250612   -0.05228360    0.03261567
     atom    2 type  1   force =    -0.03882167    0.02438201    0.06666962
     atom    3 type  1   force =     0.07849635   -0.01801169    0.00821359
     atom    4 type  1   force =     0.02276327   -0.03446008    0.06965314
     atom    5 type  1   force =     0.03870390   -0.02449090   -0.06677048
     atom    6 type  1   force =     0.05222743    0.05240285   -0.03288594
     atom    7 type  1   force =    -0.04239484   -0.04564740   -0.05173823
     atom    8 type  2   force =     0.00001231    0.00000053   -0.00003395
     atom    9 type  1   force =    -0.01972588    0.07840776    0.00364217
     atom   10 type  1   force =     0.04250487    0.04545884    0.05179430
     atom   11 type  1   force =    -0.07854722    0.01794801   -0.00801022
     atom   12 type  1   force =    -0.02249004    0.03464797   -0.06964996
     atom   13 type  1   force =     0.01983871   -0.07833061   -0.00396972
     The ionic contribution  to forces
     atom    1 type  1   force =   -31.23928183  -31.09779553   19.47437280
     atom    2 type  1   force =   -22.96477317   14.57943277   39.76459839
     atom    3 type  1   force =    46.72448229  -10.59953269    4.77592663
     atom    4 type  1   force =    13.27705389  -20.81743964   41.36307314
     atom    5 type  1   force =    22.96393762  -14.57826425  -39.76306966
     atom    6 type  1   force =    31.23749801   31.10298457  -19.46806972
     atom    7 type  1   force =   -25.24630316  -27.25014041  -30.69650212
     atom    8 type  2   force =     0.00098091    0.00029409   -0.00983058
     atom    9 type  1   force =   -11.87442931   46.61307755    2.17107536
     atom   10 type  1   force =    25.24829982   27.24831565   30.69802321
     atom   11 type  1   force =   -46.72542846   10.59180866   -4.77611739
     atom   12 type  1   force =   -13.26946458   20.82281955  -41.36192863
     atom   13 type  1   force =    11.86742797  -46.61556032   -2.17155142
     The local contribution  to forces
     atom    1 type  1   force =    31.24968534   31.10825000  -19.48083383
     atom    2 type  1   force =    22.97265628  -14.58422083  -39.77770992
     atom    3 type  1   force =   -46.74007741   10.60327160   -4.77764730
     atom    4 type  1   force =   -13.28189552   20.82399831  -41.37704951
     atom    5 type  1   force =   -22.97179668   14.58313158   39.77632130
     atom    6 type  1   force =   -31.24775217  -31.11349230   19.47470541
     atom    7 type  1   force =    25.25478177   27.25912926   30.70696061
     atom    8 type  2   force =    -0.00100145   -0.00029243    0.00986179
     atom    9 type  1   force =    11.87821267  -46.62868119   -2.17184681
     atom   10 type  1   force =   -25.25683206  -27.25719543  -30.70848343
     atom   11 type  1   force =    46.74107755  -10.59552874    4.77775219
     atom   12 type  1   force =    13.27415471  -20.82946505   41.37591158
     atom   13 type  1   force =   -11.87127411   46.63106746    2.17251724
     The core correction contribution to forces
     atom    1 type  1   force =     0.01464257    0.01455245   -0.00910597
     atom    2 type  1   force =     0.01075523   -0.00683113   -0.01863885
     atom    3 type  1   force =    -0.02188105    0.00495607   -0.00226193
     atom    4 type  1   force =    -0.00620594    0.00974114   -0.01939391
     atom    5 type  1   force =    -0.01072009    0.00682080    0.01861533
     atom    6 type  1   force =    -0.01462583   -0.01455978    0.00910868
     atom    7 type  1   force =     0.01179843    0.01271643    0.01436100
     atom    8 type  2   force =     0.00000040   -0.00000006   -0.00000019
     atom    9 type  1   force =     0.00553732   -0.02184577   -0.00101471
     atom   10 type  1   force =    -0.01179626   -0.01272063   -0.01436517
     atom   11 type  1   force =     0.02187548   -0.00494751    0.00221758
     atom   12 type  1   force =     0.00622805   -0.00972444    0.01936059
     atom   13 type  1   force =    -0.00554044    0.02183195    0.00101589
     The Hubbard contrib.    to forces
     atom    1 type  1   force =     0.00000000    0.00000000    0.00000000
     atom    2 type  1   force =     0.00000000    0.00000000    0.00000000
     atom    3 type  1   force =     0.00000000    0.00000000    0.00000000
     atom    4 type  1   force =     0.00000000    0.00000000    0.00000000
     atom    5 type  1   force =     0.00000000    0.00000000    0.00000000
     atom    6 type  1   force =     0.00000000    0.00000000    0.00000000
     atom    7 type  1   force =     0.00000000    0.00000000    0.00000000
     atom    8 type  2   force =     0.00000000    0.00000000    0.00000000
     atom    9 type  1   force =     0.00000000    0.00000000    0.00000000
     atom   10 type  1   force =     0.00000000    0.00000000    0.00000000
     atom   11 type  1   force =     0.00000000    0.00000000    0.00000000
     atom   12 type  1   force =     0.00000000    0.00000000    0.00000000
     atom   13 type  1   force =     0.00000000    0.00000000    0.00000000
     The SCF correction term to forces
     atom    1 type  1   force =    -0.00003281   -0.00002995    0.00001232
     atom    2 type  1   force =    -0.00003199    0.00001896    0.00002501
     atom    3 type  1   force =     0.00004757   -0.00001860    0.00000562
     atom    4 type  1   force =     0.00002613   -0.00002730    0.00002908
     atom    5 type  1   force =     0.00003297   -0.00001737   -0.00002365
     atom    6 type  1   force =     0.00003504    0.00003058   -0.00001135
     atom    7 type  1   force =    -0.00003036   -0.00002568   -0.00001847
     atom    8 type  2   force =    -0.00000085    0.00000058    0.00000127
     atom    9 type  1   force =    -0.00002093    0.00004329    0.00000016
     atom   10 type  1   force =     0.00003162    0.00002701    0.00002129
     atom   11 type  1   force =    -0.00004575    0.00001933   -0.00000478
     atom   12 type  1   force =    -0.00002524    0.00002715   -0.00002795
     atom   13 type  1   force =     0.00002038   -0.00004281    0.00000282

     Total force =     0.146635     Total SCF correction =     0.000163

     number of scf cycles    =   2
     number of bfgs steps    =   1

     energy   old            =   -5168.9143770578 Ry
     energy   new            =   -5168.9471439760 Ry

     CASE: energy  _new < energy  _old

     new trust radius        =       0.0615042258 bohr
     new conv_thr            =       0.0000000041 Ry


ATOMIC_POSITIONS (bohr)
Ag            4.4757405141        4.3765418334        8.5129668024
Ag            5.3792502366        9.3598280725       10.7287363679
Ag           12.9861722210        6.6146156593        6.9083267135
Ag            9.3301180929        5.4980162116       10.9037635361
Ag           10.3888922054        6.1803575014        2.0477978408
Ag           11.2927266924       11.1632475332        4.2656964274
Ag            5.1289011762        4.7968469001        3.0391126491
Bi            7.8835921550        7.7699348948        6.3879279505
Ag            6.5884840446       12.8598543827        6.6256220253
Ag           10.6375921088       10.7436093505        9.7372884404
Ag            2.7807981801        8.9249313898        5.8672866475
Ag            6.4362127514       10.0414425778        1.8728934479
Ag            9.1772796174        2.6797337388        6.1528211961



     Writing output data file ./tmp/ag12Bic.save/
     NEW-OLD atomic charge density approx. for the potential

     Check: negative core charge=   -0.000001

     negative rho (up, down):  1.753E-03 0.000E+00

     total cpu time spent up to now is     5344.4 secs

     Self-consistent Calculation

     iteration #  1     ecut=    45.00 Ry     beta= 0.30
     Davidson diagonalization with overlap
     ethr =  1.00E-06,  avg # of iterations =  6.0

     negative rho (up, down):  1.699E-03 0.000E+00

     total cpu time spent up to now is     5457.9 secs

     total energy              =   -5168.97066432 Ry
     Harris-Foulkes estimate   =   -5169.40216268 Ry
     estimated scf accuracy    <       0.00187092 Ry

     iteration #  2     ecut=    45.00 Ry     beta= 0.30
     Davidson diagonalization with overlap
     ethr =  1.27E-06,  avg # of iterations =  1.0

     negative rho (up, down):  1.909E-03 0.000E+00

     total cpu time spent up to now is     5535.3 secs

     total energy              =   -5168.97304821 Ry
     Harris-Foulkes estimate   =   -5168.97070812 Ry
     estimated scf accuracy    <       0.00109090 Ry

     iteration #  3     ecut=    45.00 Ry     beta= 0.30
     Davidson diagonalization with overlap
     ethr =  7.42E-07,  avg # of iterations =  3.0

     negative rho (up, down):  1.540E-03 0.000E+00

     total cpu time spent up to now is     5622.2 secs

     total energy              =   -5168.97339776 Ry
     Harris-Foulkes estimate   =   -5168.97351745 Ry
     estimated scf accuracy    <       0.00012517 Ry

     iteration #  4     ecut=    45.00 Ry     beta= 0.30
     Davidson diagonalization with overlap
     ethr =  8.51E-08,  avg # of iterations =  3.0

     negative rho (up, down):  1.316E-03 0.000E+00

     total cpu time spent up to now is     5708.7 secs

     total energy              =   -5168.97350749 Ry
     Harris-Foulkes estimate   =   -5168.97343983 Ry
     estimated scf accuracy    <       0.00003502 Ry

     iteration #  5     ecut=    45.00 Ry     beta= 0.30
     Davidson diagonalization with overlap
     ethr =  2.38E-08,  avg # of iterations =  3.0

     negative rho (up, down):  1.165E-03 0.000E+00

     total cpu time spent up to now is     5793.0 secs

     total energy              =   -5168.97351031 Ry
     Harris-Foulkes estimate   =   -5168.97351550 Ry
     estimated scf accuracy    <       0.00000847 Ry

     iteration #  6     ecut=    45.00 Ry     beta= 0.30
     Davidson diagonalization with overlap
     ethr =  5.76E-09,  avg # of iterations =  2.0

     negative rho (up, down):  9.307E-04 0.000E+00

     total cpu time spent up to now is     5872.3 secs

     total energy              =   -5168.97352674 Ry
     Harris-Foulkes estimate   =   -5168.97351083 Ry
     estimated scf accuracy    <       0.00000944 Ry

     iteration #  7     ecut=    45.00 Ry     beta= 0.30
     Davidson diagonalization with overlap
     ethr =  5.76E-09,  avg # of iterations =  3.0

     negative rho (up, down):  7.652E-04 0.000E+00

     total cpu time spent up to now is     5953.3 secs

     total energy              =   -5168.97352389 Ry
     Harris-Foulkes estimate   =   -5168.97352731 Ry
     estimated scf accuracy    <       0.00000630 Ry

     iteration #  8     ecut=    45.00 Ry     beta= 0.30
     Davidson diagonalization with overlap
     ethr =  4.28E-09,  avg # of iterations =  2.0

     negative rho (up, down):  5.983E-04 0.000E+00

     total cpu time spent up to now is     6032.1 secs

     total energy              =   -5168.97352285 Ry
     Harris-Foulkes estimate   =   -5168.97352423 Ry
     estimated scf accuracy    <       0.00000317 Ry

     iteration #  9     ecut=    45.00 Ry     beta= 0.30
     Davidson diagonalization with overlap
     ethr =  2.15E-09,  avg # of iterations =  3.0

     negative rho (up, down):  4.322E-04 0.000E+00

     total cpu time spent up to now is     6114.5 secs

     total energy              =   -5168.97352462 Ry
     Harris-Foulkes estimate   =   -5168.97352325 Ry
     estimated scf accuracy    <       0.00000201 Ry

     iteration # 10     ecut=    45.00 Ry     beta= 0.30
     Davidson diagonalization with overlap
     ethr =  1.37E-09,  avg # of iterations =  2.0

     negative rho (up, down):  4.220E-04 0.000E+00

     total cpu time spent up to now is     6194.7 secs

     total energy              =   -5168.97352344 Ry
     Harris-Foulkes estimate   =   -5168.97352484 Ry
     estimated scf accuracy    <       0.00000152 Ry

     iteration # 11     ecut=    45.00 Ry     beta= 0.30
     Davidson diagonalization with overlap
     ethr =  1.03E-09,  avg # of iterations =  2.0

     negative rho (up, down):  1.291E-03 0.000E+00

     total cpu time spent up to now is     6274.4 secs

     total energy              =   -5168.97352328 Ry
     Harris-Foulkes estimate   =   -5168.97352355 Ry
     estimated scf accuracy    <       0.00000093 Ry

     iteration # 12     ecut=    45.00 Ry     beta= 0.30
     Davidson diagonalization with overlap
     ethr =  6.30E-10,  avg # of iterations =  4.0

     negative rho (up, down):  1.990E-03 0.000E+00

     total cpu time spent up to now is     6360.1 secs

     total energy              =   -5168.97352231 Ry
     Harris-Foulkes estimate   =   -5168.97352359 Ry
     estimated scf accuracy    <       0.00000108 Ry

     iteration # 13     ecut=    45.00 Ry     beta= 0.30
     Davidson diagonalization with overlap
     ethr =  6.30E-10,  avg # of iterations =  3.0

     negative rho (up, down):  2.359E-03 0.000E+00

     total cpu time spent up to now is     6441.7 secs

     total energy              =   -5168.97352245 Ry
     Harris-Foulkes estimate   =   -5168.97352243 Ry
     estimated scf accuracy    <       0.00000057 Ry

     iteration # 14     ecut=    45.00 Ry     beta= 0.30
     Davidson diagonalization with overlap
     ethr =  3.91E-10,  avg # of iterations =  1.0

     negative rho (up, down):  2.336E-03 0.000E+00

     total cpu time spent up to now is     6520.3 secs

     total energy              =   -5168.97352290 Ry
     Harris-Foulkes estimate   =   -5168.97352248 Ry
     estimated scf accuracy    <       0.00000036 Ry

     iteration # 15     ecut=    45.00 Ry     beta= 0.30
     Davidson diagonalization with overlap
     ethr =  2.47E-10,  avg # of iterations =  3.0

     negative rho (up, down):  2.354E-03 0.000E+00

     total cpu time spent up to now is     6601.0 secs

     total energy              =   -5168.97352237 Ry
     Harris-Foulkes estimate   =   -5168.97352293 Ry
     estimated scf accuracy    <       0.00000020 Ry

     iteration # 16     ecut=    45.00 Ry     beta= 0.30
     Davidson diagonalization with overlap
     ethr =  1.38E-10,  avg # of iterations =  2.0

     negative rho (up, down):  2.312E-03 0.000E+00

     total cpu time spent up to now is     6680.8 secs

     total energy              =   -5168.97352247 Ry
     Harris-Foulkes estimate   =   -5168.97352239 Ry
     estimated scf accuracy    <       0.00000015 Ry

     iteration # 17     ecut=    45.00 Ry     beta= 0.30
     Davidson diagonalization with overlap
     ethr =  1.01E-10,  avg # of iterations =  3.0

     negative rho (up, down):  2.189E-03 0.000E+00

     total cpu time spent up to now is     6763.5 secs

     total energy              =   -5168.97352239 Ry
     Harris-Foulkes estimate   =   -5168.97352249 Ry
     estimated scf accuracy    <       0.00000012 Ry

     iteration # 18     ecut=    45.00 Ry     beta= 0.30
     Davidson diagonalization with overlap
     ethr =  8.18E-11,  avg # of iterations =  2.0

     negative rho (up, down):  2.087E-03 0.000E+00

     total cpu time spent up to now is     6843.2 secs

     total energy              =   -5168.97352238 Ry
     Harris-Foulkes estimate   =   -5168.97352241 Ry
     estimated scf accuracy    <       0.00000008 Ry

     iteration # 19     ecut=    45.00 Ry     beta= 0.30
     Davidson diagonalization with overlap
     ethr =  5.14E-11,  avg # of iterations =  3.0

     negative rho (up, down):  2.098E-03 0.000E+00

     total cpu time spent up to now is     6925.0 secs

     total energy              =   -5168.97352235 Ry
     Harris-Foulkes estimate   =   -5168.97352239 Ry
     estimated scf accuracy    <       0.00000007 Ry

     iteration # 20     ecut=    45.00 Ry     beta= 0.30
     Davidson diagonalization with overlap
     ethr =  4.68E-11,  avg # of iterations =  1.0

     negative rho (up, down):  1.927E-03 0.000E+00

     total cpu time spent up to now is     7003.3 secs

     total energy              =   -5168.97352218 Ry
     Harris-Foulkes estimate   =   -5168.97352236 Ry
     estimated scf accuracy    <       0.00000004 Ry

     iteration # 21     ecut=    45.00 Ry     beta= 0.30
     Davidson diagonalization with overlap
     ethr =  2.98E-11,  avg # of iterations =  3.0

     negative rho (up, down):  1.825E-03 0.000E+00

     total cpu time spent up to now is     7085.3 secs

     total energy              =   -5168.97352205 Ry
     Harris-Foulkes estimate   =   -5168.97352219 Ry
     estimated scf accuracy    <       0.00000003 Ry

     iteration # 22     ecut=    45.00 Ry     beta= 0.30
     Davidson diagonalization with overlap
     ethr =  1.91E-11,  avg # of iterations =  3.0

     negative rho (up, down):  1.865E-03 0.000E+00

     total cpu time spent up to now is     7166.7 secs

     total energy              =   -5168.97352204 Ry
     Harris-Foulkes estimate   =   -5168.97352205 Ry
     estimated scf accuracy    <       0.00000002 Ry

     iteration # 23     ecut=    45.00 Ry     beta= 0.30
     Davidson diagonalization with overlap
     ethr =  1.34E-11,  avg # of iterations =  3.0

     negative rho (up, down):  1.843E-03 0.000E+00

     total cpu time spent up to now is     7248.8 secs

     total energy              =   -5168.97352200 Ry
     Harris-Foulkes estimate   =   -5168.97352204 Ry
     estimated scf accuracy    <       0.00000001 Ry

     iteration # 24     ecut=    45.00 Ry     beta= 0.30
     Davidson diagonalization with overlap
     ethr =  8.03E-12,  avg # of iterations =  1.0

     negative rho (up, down):  1.812E-03 0.000E+00

     total cpu time spent up to now is     7327.0 secs

     total energy              =   -5168.97352199 Ry
     Harris-Foulkes estimate   =   -5168.97352200 Ry
     estimated scf accuracy    <          9.7E-09 Ry

     iteration # 25     ecut=    45.00 Ry     beta= 0.30
     Davidson diagonalization with overlap
     ethr =  6.57E-12,  avg # of iterations =  3.0

     negative rho (up, down):  1.830E-03 0.000E+00

     total cpu time spent up to now is     7407.1 secs

     total energy              =   -5168.97352197 Ry
     Harris-Foulkes estimate   =   -5168.97352199 Ry
     estimated scf accuracy    <          6.6E-09 Ry

     iteration # 26     ecut=    45.00 Ry     beta= 0.30
     Davidson diagonalization with overlap
     ethr =  4.47E-12,  avg # of iterations =  1.0

     negative rho (up, down):  1.816E-03 0.000E+00

     total cpu time spent up to now is     7484.9 secs

     total energy              =   -5168.97352198 Ry
     Harris-Foulkes estimate   =   -5168.97352197 Ry
     estimated scf accuracy    <          5.0E-09 Ry

     iteration # 27     ecut=    45.00 Ry     beta= 0.30
     Davidson diagonalization with overlap
     ethr =  3.41E-12,  avg # of iterations =  3.0

     negative rho (up, down):  1.747E-03 0.000E+00

     total cpu time spent up to now is     7560.1 secs

     End of self-consistent calculation

          k = 0.0000 0.0000 0.0000 (232063 PWs)   bands (ev):

   -27.7491 -27.7491 -27.7491 -27.7491 -27.7490 -16.8817 -10.4191 -10.4189
   -10.4186  -8.9254  -8.9252  -8.9252  -8.9250  -8.9246  -8.9101  -8.9100
    -8.9097  -8.9094  -8.6693  -8.6693  -8.6692  -8.5803  -8.5559  -8.5557
    -8.5555  -8.5553  -8.3152  -8.3150  -8.3146  -8.1582  -8.1579  -8.1576
    -8.1570  -8.1569  -7.9151  -7.9149  -7.9144  -7.9141  -7.9137  -7.7369
    -7.7368  -7.7365  -7.7361  -7.7361  -7.7205  -7.7204  -7.7204  -7.4920
    -7.4918  -7.4917  -7.4915  -7.3283  -7.3282  -7.3282  -7.3281  -7.3280
    -7.2281  -7.2279  -7.2276  -7.2275  -7.2249  -7.2249  -7.2249  -6.9839
    -6.9837  -6.9837  -6.5603  -6.5600  -6.5599  -5.6343  -4.0603  -4.0600
    -4.0598  -4.0597  -4.0592  -2.7818  -2.7818  -2.7817  -1.7408  -1.7407
    -1.7405  -1.4006  -1.4001  -1.3998  -1.3994  -0.7226  -0.1261  -0.1259
    -0.0921

     occupation numbers 
     1.0000   1.0000   1.0000   1.0000   1.0000   1.0000   1.0000   1.0000
     1.0000   1.0000   1.0000   1.0000   1.0000   1.0000   1.0000   1.0000
     1.0000   1.0000   1.0000   1.0000   1.0000   1.0000   1.0000   1.0000
     1.0000   1.0000   1.0000   1.0000   1.0000   1.0000   1.0000   1.0000
     1.0000   1.0000   1.0000   1.0000   1.0000   1.0000   1.0000   1.0000
     1.0000   1.0000   1.0000   1.0000   1.0000   1.0000   1.0000   1.0000
     1.0000   1.0000   1.0000   1.0000   1.0000   1.0000   1.0000   1.0000
     1.0000   1.0000   1.0000   1.0000   1.0000   1.0000   1.0000   1.0000
     1.0000   1.0000   1.0000   1.0000   1.0000   1.0000   0.7013   0.7005
     0.7001   0.6996   0.6986   0.0000   0.0000   0.0000   0.0000   0.0000
     0.0000   0.0000   0.0000   0.0000   0.0000   0.0000   0.0000   0.0000
     0.0000

     the Fermi energy is    -3.9381 ev

!    total energy              =   -5168.97352205 Ry
     Harris-Foulkes estimate   =   -5168.97352198 Ry
     estimated scf accuracy    <          3.0E-09 Ry

     total all-electron energy =   -170648.024184 Ry

     The total energy is the sum of the following terms:

     one-electron contribution =   -5142.02878754 Ry
     hartree contribution      =    2661.32628775 Ry
     xc contribution           =    -460.06634865 Ry
     ewald contribution        =    1678.39389307 Ry
     one-center paw contrib.   =   -3906.57447663 Ry
      -> PAW hartree energy AE =      67.23132567 Ry
      -> PAW hartree energy PS =     -67.08794428 Ry
      -> PAW xc energy AE      =    -297.88877319 Ry
      -> PAW xc energy PS      =      35.24780327 Ry
      -> total E_H with PAW    =    2661.46966914 Ry
      -> total E_XC with PAW   =    -722.70731858 Ry
     smearing contrib. (-TS)   =      -0.02409004 Ry

     convergence has been achieved in  27 iterations

     negative rho (up, down):  1.747E-03 0.000E+00

     Forces acting on atoms (cartesian axes, Ry/au):

     atom    1 type  1   force =    -0.01920955   -0.01906536    0.01192090
     atom    2 type  1   force =    -0.01407868    0.00895293    0.02443163
     atom    3 type  1   force =     0.02867722   -0.00650721    0.00296580
     atom    4 type  1   force =     0.00818919   -0.01272294    0.02538911
     atom    5 type  1   force =     0.01403215   -0.00895717   -0.02438803
     atom    6 type  1   force =     0.01914969    0.01909546   -0.01197569
     atom    7 type  1   force =    -0.01547638   -0.01669435   -0.01883174
     atom    8 type  2   force =     0.00000048    0.00000073   -0.00000614
     atom    9 type  1   force =    -0.00726801    0.02861593    0.00131312
     atom   10 type  1   force =     0.01551663    0.01669124    0.01884938
     atom   11 type  1   force =    -0.02869450    0.00645593   -0.00289691
     atom   12 type  1   force =    -0.00813643    0.01277668   -0.02540140
     atom   13 type  1   force =     0.00729820   -0.02864187   -0.00137003
     The non-local contrib.  to forces
     atom    1 type  1   force =    -0.05923823   -0.05902316    0.03683822
     atom    2 type  1   force =    -0.04376684    0.02754363    0.07526951
     atom    3 type  1   force =     0.08860464   -0.02027827    0.00921853
     atom    4 type  1   force =     0.02558360   -0.03898477    0.07858719
     atom    5 type  1   force =     0.04366134   -0.02763784   -0.07535836
     atom    6 type  1   force =     0.05899534    0.05911977   -0.03707721
     atom    7 type  1   force =    -0.04784150   -0.05153371   -0.05836977
     atom    8 type  2   force =     0.00001035    0.00000229   -0.00004099
     atom    9 type  1   force =    -0.02228519    0.08849653    0.00413245
     atom   10 type  1   force =     0.04793946    0.05137331    0.05840861
     atom   11 type  1   force =    -0.08865014    0.02022991   -0.00904375
     atom   12 type  1   force =    -0.02535848    0.03914088   -0.07858690
     atom   13 type  1   force =     0.02238783   -0.08844199   -0.00441924
     The ionic contribution  to forces
     atom    1 type  1   force =   -30.49624129  -30.35883264   19.01199186
     atom    2 type  1   force =   -22.41938165   14.23315674   38.81832438
     atom    3 type  1   force =    45.61161496  -10.34777899    4.66232033
     atom    4 type  1   force =    12.96183192  -20.32324750   40.37878260
     atom    5 type  1   force =    22.41879345  -14.23212844  -38.81692804
     atom    6 type  1   force =    30.49492533   30.36365517  -19.00572878
     atom    7 type  1   force =   -24.64666925  -26.60274569  -29.96693010
     atom    8 type  2   force =     0.00083440    0.00016995   -0.00907902
     atom    9 type  1   force =   -11.59242660   45.50275406    2.11984823
     atom   10 type  1   force =    24.64840277   26.60111836   29.96814779
     atom   11 type  1   force =   -45.61260607   10.34061785   -4.66295167
     atom   12 type  1   force =   -12.95469668   20.32813317  -40.37791256
     atom   13 type  1   force =    11.58561871  -45.50487203   -2.11988503
     The local contribution  to forces
     atom    1 type  1   force =    30.52302547   30.38561051  -19.02867017
     atom    2 type  1   force =    22.43929626  -14.24559187  -38.85230839
     atom    3 type  1   force =   -45.65172131   10.35705551   -4.66653719
     atom    4 type  1   force =   -12.97360342   20.34070496  -40.41444949
     atom    5 type  1   force =   -22.43867073   14.24463709   38.85102808
     atom    6 type  1   force =   -30.52155405  -30.39048122   19.02257620
     atom    7 type  1   force =    24.66835945   26.62601507   29.99348160
     atom    8 type  2   force =    -0.00084738   -0.00017287    0.00911693
     atom    9 type  1   force =    11.60241731  -45.54283379   -2.12176665
     atom   10 type  1   force =   -24.67015431  -26.62428682  -29.99470138
     atom   11 type  1   force =    45.65276275  -10.34987770    4.66707839
     atom   12 type  1   force =    12.96632762  -20.34567996   40.41358324
     atom   13 type  1   force =   -11.59567426   45.54489112    2.12199827
     The core correction contribution to forces
     atom    1 type  1   force =     0.01326315    0.01319968   -0.00825040
     atom    2 type  1   force =     0.00977863   -0.00616406   -0.01686956
     atom    3 type  1   force =    -0.01985543    0.00450230   -0.00203921
     atom    4 type  1   force =    -0.00563535    0.00881258   -0.01755262
     atom    5 type  1   force =    -0.00976392    0.00618024    0.01689127
     atom    6 type  1   force =    -0.01323944   -0.01321783    0.00826968
     atom    7 type  1   force =     0.01068466    0.01158106    0.01300763
     atom    8 type  2   force =    -0.00000004    0.00000005   -0.00000008
     atom    9 type  1   force =     0.00503351   -0.01983267   -0.00090190
     atom   10 type  1   force =    -0.01068704   -0.01152646   -0.01302227
     atom   11 type  1   force =     0.01982862   -0.00452221    0.00202860
     atom   12 type  1   force =     0.00559747   -0.00882608    0.01754023
     atom   13 type  1   force =    -0.00504675    0.01981030    0.00094196
     The Hubbard contrib.    to forces
     atom    1 type  1   force =     0.00000000    0.00000000    0.00000000
     atom    2 type  1   force =     0.00000000    0.00000000    0.00000000
     atom    3 type  1   force =     0.00000000    0.00000000    0.00000000
     atom    4 type  1   force =     0.00000000    0.00000000    0.00000000
     atom    5 type  1   force =     0.00000000    0.00000000    0.00000000
     atom    6 type  1   force =     0.00000000    0.00000000    0.00000000
     atom    7 type  1   force =     0.00000000    0.00000000    0.00000000
     atom    8 type  2   force =     0.00000000    0.00000000    0.00000000
     atom    9 type  1   force =     0.00000000    0.00000000    0.00000000
     atom   10 type  1   force =     0.00000000    0.00000000    0.00000000
     atom   11 type  1   force =     0.00000000    0.00000000    0.00000000
     atom   12 type  1   force =     0.00000000    0.00000000    0.00000000
     atom   13 type  1   force =     0.00000000    0.00000000    0.00000000
     The SCF correction term to forces
     atom    1 type  1   force =    -0.00002144   -0.00002067    0.00001384
     atom    2 type  1   force =    -0.00000787    0.00000755    0.00001813
     atom    3 type  1   force =     0.00003156   -0.00000869    0.00000579
     atom    4 type  1   force =     0.00000965   -0.00000914    0.00002387
     atom    5 type  1   force =     0.00000921   -0.00000915   -0.00001853
     atom    6 type  1   force =     0.00001971    0.00001864   -0.00001313
     atom    7 type  1   force =    -0.00001254   -0.00001201   -0.00001867
     atom    8 type  2   force =     0.00000035    0.00000037   -0.00000054
     atom    9 type  1   force =    -0.00000984    0.00003088    0.00000344
     atom   10 type  1   force =     0.00001296    0.00001193    0.00001906
     atom   11 type  1   force =    -0.00003245    0.00000716   -0.00000605
[...]
     Davidson diagonalization with overlap
     ethr =  9.04E-12,  avg # of iterations =  1.0

     negative rho (up, down):  1.675E-03 0.000E+00

     total cpu time spent up to now is    15725.8 secs

     total energy              =   -5169.00400557 Ry
     Harris-Foulkes estimate   =   -5169.00400552 Ry
     estimated scf accuracy    <       0.00000001 Ry

     iteration #  7     ecut=    45.00 Ry     beta= 0.30
     Davidson diagonalization with overlap
     ethr =  9.04E-12,  avg # of iterations =  2.0

     negative rho (up, down):  1.673E-03 0.000E+00

     total cpu time spent up to now is    15806.9 secs

     total energy              =   -5169.00400557 Ry
     Harris-Foulkes estimate   =   -5169.00400558 Ry
     estimated scf accuracy    <          6.2E-09 Ry

     iteration #  8     ecut=    45.00 Ry     beta= 0.30
     Davidson diagonalization with overlap
     ethr =  4.20E-12,  avg # of iterations =  2.0

     negative rho (up, down):  1.647E-03 0.000E+00

     total cpu time spent up to now is    15885.6 secs

     total energy              =   -5169.00400558 Ry
     Harris-Foulkes estimate   =   -5169.00400557 Ry
     estimated scf accuracy    <          3.4E-09 Ry

     iteration #  9     ecut=    45.00 Ry     beta= 0.30
     Davidson diagonalization with overlap
     ethr =  2.31E-12,  avg # of iterations =  3.0

     negative rho (up, down):  1.643E-03 0.000E+00

     total cpu time spent up to now is    15967.6 secs

     total energy              =   -5169.00400558 Ry
     Harris-Foulkes estimate   =   -5169.00400558 Ry
     estimated scf accuracy    <          2.5E-09 Ry

     iteration # 10     ecut=    45.00 Ry     beta= 0.30
     Davidson diagonalization with overlap
     ethr =  1.70E-12,  avg # of iterations =  1.0

     negative rho (up, down):  1.641E-03 0.000E+00

     total cpu time spent up to now is    16045.0 secs

     total energy              =   -5169.00400557 Ry
     Harris-Foulkes estimate   =   -5169.00400558 Ry
     estimated scf accuracy    <          2.1E-09 Ry

     iteration # 11     ecut=    45.00 Ry     beta= 0.30
     Davidson diagonalization with overlap
     ethr =  1.45E-12,  avg # of iterations =  2.0

     negative rho (up, down):  1.649E-03 0.000E+00

     total cpu time spent up to now is    16127.3 secs

     total energy              =   -5169.00400555 Ry
     Harris-Foulkes estimate   =   -5169.00400557 Ry
     estimated scf accuracy    <          1.1E-09 Ry

     iteration # 12     ecut=    45.00 Ry     beta= 0.30
     Davidson diagonalization with overlap
     ethr =  7.15E-13,  avg # of iterations =  2.0

     negative rho (up, down):  1.660E-03 0.000E+00

     total cpu time spent up to now is    16211.3 secs

     total energy              =   -5169.00400554 Ry
     Harris-Foulkes estimate   =   -5169.00400555 Ry
     estimated scf accuracy    <          9.0E-10 Ry

     iteration # 13     ecut=    45.00 Ry     beta= 0.30
     Davidson diagonalization with overlap
     ethr =  6.09E-13,  avg # of iterations =  3.0

     negative rho (up, down):  1.680E-03 0.000E+00

     total cpu time spent up to now is    16290.6 secs

     total energy              =   -5169.00400551 Ry
     Harris-Foulkes estimate   =   -5169.00400554 Ry
     estimated scf accuracy    <          4.4E-10 Ry

     iteration # 14     ecut=    45.00 Ry     beta= 0.30
     Davidson diagonalization with overlap
     ethr =  3.01E-13,  avg # of iterations =  4.0

     negative rho (up, down):  1.700E-03 0.000E+00

     total cpu time spent up to now is    16370.3 secs

     total energy              =   -5169.00400550 Ry
     Harris-Foulkes estimate   =   -5169.00400551 Ry
     estimated scf accuracy    <          3.0E-10 Ry

     iteration # 15     ecut=    45.00 Ry     beta= 0.30
     Davidson diagonalization with overlap
     ethr =  2.02E-13,  avg # of iterations =  4.0

     negative rho (up, down):  1.706E-03 0.000E+00

     total cpu time spent up to now is    16451.9 secs

     total energy              =   -5169.00400550 Ry
     Harris-Foulkes estimate   =   -5169.00400550 Ry
     estimated scf accuracy    <          2.0E-10 Ry

     iteration # 16     ecut=    45.00 Ry     beta= 0.30
     Davidson diagonalization with overlap
     ethr =  1.37E-13,  avg # of iterations =  1.0

     negative rho (up, down):  1.713E-03 0.000E+00

     total cpu time spent up to now is    16528.6 secs

     total energy              =   -5169.00400549 Ry
     Harris-Foulkes estimate   =   -5169.00400550 Ry
     estimated scf accuracy    <          1.3E-10 Ry

     iteration # 17     ecut=    45.00 Ry     beta= 0.30
     Davidson diagonalization with overlap
     ethr =  1.00E-13,  avg # of iterations =  2.0

     negative rho (up, down):  1.717E-03 0.000E+00

     total cpu time spent up to now is    16606.4 secs

     total energy              =   -5169.00400549 Ry
     Harris-Foulkes estimate   =   -5169.00400549 Ry
     estimated scf accuracy    <          1.2E-10 Ry

     iteration # 18     ecut=    45.00 Ry     beta= 0.30
     Davidson diagonalization with overlap
     ethr =  1.00E-13,  avg # of iterations =  2.0

     negative rho (up, down):  1.718E-03 0.000E+00

     total cpu time spent up to now is    16679.1 secs

     End of self-consistent calculation

          k = 0.0000 0.0000 0.0000 (232063 PWs)   bands (ev):

   -27.5783 -27.5783 -27.5783 -27.5783 -27.5783 -16.3160  -9.8266  -9.8265
    -9.8262  -8.5500  -8.5499  -8.5498  -8.5498  -8.5495  -8.5311  -8.5309
    -8.5307  -8.5305  -8.3353  -8.3352  -8.3352  -8.2418  -8.2412  -8.2411
    -8.2409  -8.2408  -8.0335  -8.0334  -8.0332  -7.9192  -7.9190  -7.9187
    -7.9182  -7.9182  -7.7179  -7.7178  -7.7173  -7.7170  -7.7168  -7.5755
    -7.5754  -7.5752  -7.5748  -7.5748  -7.5569  -7.5569  -7.5569  -7.3621
    -7.3620  -7.3619  -7.3618  -7.2306  -7.2305  -7.2305  -7.2304  -7.2303
    -7.1488  -7.1488  -7.1487  -7.1395  -7.1393  -7.1391  -7.1390  -6.9465
    -6.9463  -6.9463  -6.4747  -6.4746  -6.4745  -5.7615  -4.0179  -4.0175
    -4.0174  -4.0171  -4.0168  -2.8402  -2.8401  -2.8401  -1.8958  -1.8957
    -1.8956  -1.3884  -1.3880  -1.3877  -1.3873  -0.8129  -0.1772  -0.1769
    -0.1567

     occupation numbers 
     1.0000   1.0000   1.0000   1.0000   1.0000   1.0000   1.0000   1.0000
     1.0000   1.0000   1.0000   1.0000   1.0000   1.0000   1.0000   1.0000
     1.0000   1.0000   1.0000   1.0000   1.0000   1.0000   1.0000   1.0000
     1.0000   1.0000   1.0000   1.0000   1.0000   1.0000   1.0000   1.0000
     1.0000   1.0000   1.0000   1.0000   1.0000   1.0000   1.0000   1.0000
     1.0000   1.0000   1.0000   1.0000   1.0000   1.0000   1.0000   1.0000
     1.0000   1.0000   1.0000   1.0000   1.0000   1.0000   1.0000   1.0000
     1.0000   1.0000   1.0000   1.0000   1.0000   1.0000   1.0000   1.0000
     1.0000   1.0000   1.0000   1.0000   1.0000   1.0000   0.7013   0.7005
     0.7001   0.6995   0.6986   0.0000   0.0000   0.0000   0.0000   0.0000
     0.0000   0.0000   0.0000   0.0000   0.0000   0.0000   0.0000   0.0000
     0.0000

     the Fermi energy is    -3.8956 ev

!    total energy              =   -5169.00400548 Ry
     Harris-Foulkes estimate   =   -5169.00400549 Ry
     estimated scf accuracy    <          6.9E-11 Ry

     total all-electron energy =   -170648.054667 Ry

     The total energy is the sum of the following terms:

     one-electron contribution =   -4942.68459687 Ry
     hartree contribution      =    2562.48629130 Ry
     xc contribution           =    -459.72171649 Ry
     ewald contribution        =    1577.45539953 Ry
     one-center paw contrib.   =   -3906.51529291 Ry
      -> PAW hartree energy AE =      66.78396834 Ry
      -> PAW hartree energy PS =     -66.63651778 Ry
      -> PAW xc energy AE      =    -297.85672832 Ry
      -> PAW xc energy PS      =      35.21514734 Ry
      -> total E_H with PAW    =    2562.63374186 Ry
      -> total E_XC with PAW   =    -722.36329747 Ry
     smearing contrib. (-TS)   =      -0.02409004 Ry

     convergence has been achieved in  18 iterations

     negative rho (up, down):  1.718E-03 0.000E+00

     Forces acting on atoms (cartesian axes, Ry/au):

     atom    1 type  1   force =    -0.00000362    0.00001512   -0.00001563
     atom    2 type  1   force =    -0.00000669    0.00001608    0.00001736
     atom    3 type  1   force =     0.00001528    0.00001474    0.00002903
     atom    4 type  1   force =    -0.00002344    0.00000427    0.00001292
     atom    5 type  1   force =    -0.00001391   -0.00000112   -0.00005266
     atom    6 type  1   force =     0.00000230   -0.00001124    0.00000278
     atom    7 type  1   force =    -0.00001617   -0.00002788    0.00001170
     atom    8 type  2   force =    -0.00000285   -0.00000813   -0.00000472
     atom    9 type  1   force =     0.00001048    0.00000832    0.00000981
     atom   10 type  1   force =     0.00001656   -0.00000291   -0.00002705
     atom   11 type  1   force =    -0.00002922   -0.00001303    0.00001054
     atom   12 type  1   force =     0.00002229    0.00002175    0.00000967
     atom   13 type  1   force =     0.00002899   -0.00001597   -0.00000375
     The non-local contrib.  to forces
     atom    1 type  1   force =    -0.07516367   -0.07500423    0.04686627
     atom    2 type  1   force =    -0.05553501    0.03501915    0.09567431
     atom    3 type  1   force =     0.11257453   -0.02570493    0.01158248
     atom    4 type  1   force =     0.03228005   -0.04973436    0.09975743
     atom    5 type  1   force =     0.05546426   -0.03507490   -0.09572683
     atom    6 type  1   force =     0.07502591    0.07504871   -0.04703411
     atom    7 type  1   force =    -0.06077515   -0.06549846   -0.07408965
     atom    8 type  2   force =     0.00000748    0.00001543   -0.00005290
     atom    9 type  1   force =    -0.02836065    0.11240395    0.00527089
     atom   10 type  1   force =     0.06083759    0.06541283    0.07409082
     atom   11 type  1   force =    -0.11259078    0.02569896   -0.01150755
     atom   12 type  1   force =    -0.03217388    0.04981388   -0.09979371
     atom   13 type  1   force =     0.02843043   -0.11238828   -0.00546350
     The ionic contribution  to forces
     atom    1 type  1   force =   -28.40321622  -28.27685717   17.70945123
     atom    2 type  1   force =   -20.88227795   13.25844374   36.15246294
     atom    3 type  1   force =    42.47626178   -9.63910488    4.34254162
     atom    4 type  1   force =    12.07311220  -18.93148472   37.60535354
     atom    5 type  1   force =    20.88219341  -13.25768993  -36.15188943
     atom    6 type  1   force =    28.40390500   28.28030841  -17.70418313
     atom    7 type  1   force =   -22.95800590  -24.77890367  -27.91163663
     atom    8 type  2   force =     0.00025977   -0.00063082   -0.00721732
     atom    9 type  1   force =   -10.79793669   42.37495182    1.97494643
     atom   10 type  1   force =    22.95917483   24.77795275   27.91242145
     atom   11 type  1   force =   -42.47725115    9.63324277   -4.34329228
     atom   12 type  1   force =   -12.06836496   18.93533619  -37.60467511
     atom   13 type  1   force =    10.79214587  -42.37556448   -1.97428332
     The local contribution  to forces
     atom    1 type  1   force =    28.46811011   28.34166311  -17.74994179
     atom    2 type  1   force =    20.93027292  -13.28867771  -36.23506280
     atom    3 type  1   force =   -42.57347689    9.66133541   -4.35254239
     atom    4 type  1   force =   -12.10103446   18.97438871  -37.69152992
     atom    5 type  1   force =   -20.93013495   13.28797197   36.23454767
     atom    6 type  1   force =   -28.46867356  -28.34513937   17.74481370
     atom    7 type  1   force =    23.01050303   24.83544851   27.97566297
     atom    8 type  2   force =    -0.00027024    0.00060529    0.00726758
     atom    9 type  1   force =    10.82239417  -42.47202133   -1.97951915
     atom   10 type  1   force =   -23.01172463  -24.83443190  -27.97643673
     atom   11 type  1   force =    42.57448633   -9.65547357    4.35324498
     atom   12 type  1   force =    12.09620044  -18.97830355   37.69089232
     atom   13 type  1   force =   -10.81666960   42.47263535    1.97902393
     The core correction contribution to forces
     atom    1 type  1   force =     0.01026573    0.01021179   -0.00638883
     atom    2 type  1   force =     0.00753275   -0.00477019   -0.01305368
     atom    3 type  1   force =    -0.01534331    0.00348730   -0.00155027
     atom    4 type  1   force =    -0.00438110    0.00683296   -0.01356489
     atom    5 type  1   force =    -0.00753663    0.00479000    0.01301725
     atom    6 type  1   force =    -0.01025454   -0.01022994    0.00640785
     atom    7 type  1   force =     0.00826139    0.00892370    0.01007619
     atom    8 type  2   force =     0.00000003    0.00000008    0.00000004
     atom    9 type  1   force =     0.00391322   -0.01532714   -0.00068597
     atom   10 type  1   force =    -0.00827112   -0.00893768   -0.01009953
     atom   11 type  1   force =     0.01532540   -0.00348239    0.00156746
     atom   12 type  1   force =     0.00436030   -0.00682592    0.01358702
     atom   13 type  1   force =    -0.00387757    0.01529945    0.00072106
     The Hubbard contrib.    to forces
     atom    1 type  1   force =     0.00000000    0.00000000    0.00000000
     atom    2 type  1   force =     0.00000000    0.00000000    0.00000000
     atom    3 type  1   force =     0.00000000    0.00000000    0.00000000
     atom    4 type  1   force =     0.00000000    0.00000000    0.00000000
     atom    5 type  1   force =     0.00000000    0.00000000    0.00000000
     atom    6 type  1   force =     0.00000000    0.00000000    0.00000000
     atom    7 type  1   force =     0.00000000    0.00000000    0.00000000
     atom    8 type  2   force =     0.00000000    0.00000000    0.00000000
     atom    9 type  1   force =     0.00000000    0.00000000    0.00000000
     atom   10 type  1   force =     0.00000000    0.00000000    0.00000000
     atom   11 type  1   force =     0.00000000    0.00000000    0.00000000
     atom   12 type  1   force =     0.00000000    0.00000000    0.00000000
     atom   13 type  1   force =     0.00000000    0.00000000    0.00000000
     The SCF correction term to forces
     atom    1 type  1   force =     0.00000026    0.00000011   -0.00000037
     atom    2 type  1   force =     0.00000043   -0.00000042   -0.00000125
     atom    3 type  1   force =    -0.00000101    0.00000033   -0.00000028
     atom    4 type  1   force =    -0.00000030    0.00000017   -0.00000109
     atom    5 type  1   force =    -0.00000018    0.00000024    0.00000083
     atom    6 type  1   force =    -0.00000068   -0.00000057    0.00000062
     atom    7 type  1   force =     0.00000028    0.00000053    0.00000096
     atom    8 type  2   force =    -0.00000005    0.00000039    0.00000003
     atom    9 type  1   force =     0.00000027   -0.00000049   -0.00000025
     atom   10 type  1   force =    -0.00000029   -0.00000042   -0.00000092
     atom   11 type  1   force =     0.00000080   -0.00000031    0.00000007
     atom   12 type  1   force =     0.00000022   -0.00000037    0.00000130
     atom   13 type  1   force =    -0.00000031    0.00000048    0.00000024

     Total force =     0.000110     Total SCF correction =     0.000004

     bfgs converged in   7 scf cycles and   6 bfgs steps
     (criteria: energy <  1.0E-04 Ry, force <  1.0E-03 Ry/Bohr)

     End of BFGS Geometry Optimization

     Final energy   =   -5169.0040054772 Ry
Begin final coordinates

ATOMIC_POSITIONS (bohr)
Ag            4.3552665330        4.2570342464        8.5876865699
Ag            5.2908457923        9.4159295940       10.8818674624
Ag           13.1659627571        6.5738198285        6.9269386071
Ag            9.3813968924        5.4182762182       11.0628882701
Ag           10.4769251227        6.1241965083        1.8947836038
Ag           11.4127095808       11.2829102030        4.1906264917
Ag            5.0318543411        4.6920189641        2.9211953202
Bi            7.8835644055        7.7699573051        6.3879320795
Ag            6.5429715685       13.0393156740        6.6337819792
Ag           10.7348044387       10.8481758821        9.8554133134
Ag            2.6009475839        8.9655286252        5.8492144949
Ag            6.3853515479       10.1216832128        1.7137172849
Ag            9.2231594323        2.5001137844        6.1441945678
End final coordinates



     Writing output data file ./tmp/ag12Bic.save/
 
     init_run     :     55.35s CPU     58.54s WALL (       1 calls)
     electrons    :  15277.46s CPU  16212.35s WALL (       7 calls)
     update_pot   :     74.02s CPU     76.11s WALL (       6 calls)
     forces       :    229.56s CPU    247.24s WALL (       7 calls)

     Called by init_run:
     wfcinit      :     11.14s CPU     11.32s WALL (       1 calls)
     wfcinit:atom :      0.08s CPU      0.10s WALL (       1 calls)
     wfcinit:wfcr :     10.92s CPU     11.02s WALL (       1 calls)
     potinit      :      8.38s CPU      9.05s WALL (       1 calls)
     hinit0       :      5.35s CPU      5.59s WALL (       1 calls)

     Called by electrons:
     c_bands      :   4511.94s CPU   4536.39s WALL (     199 calls)
     sum_band     :   5361.05s CPU   5789.25s WALL (     199 calls)
     v_of_rho     :   1061.32s CPU   1145.39s WALL (     203 calls)
     v_h          :    130.55s CPU    131.29s WALL (     203 calls)
     v_xc         :    963.38s CPU   1049.58s WALL (     210 calls)
     newd         :   3109.26s CPU   3488.50s WALL (     203 calls)
     PAW_pot      :    112.48s CPU    114.71s WALL (     209 calls)
     mix_rho      :   1099.60s CPU   1121.84s WALL (     199 calls)

     Called by c_bands:
     init_us_2    :     24.10s CPU     24.43s WALL (     405 calls)
     regterg      :   4397.07s CPU   4420.76s WALL (     199 calls)

     Called by sum_band:
     sum_band:bec :      0.11s CPU      0.11s WALL (     205 calls)
     addusdens    :   4292.50s CPU   4710.35s WALL (     199 calls)

     Called by *egterg:
     h_psi        :   3627.17s CPU   3643.26s WALL (     788 calls)
     s_psi        :    201.56s CPU    202.27s WALL (     788 calls)
     g_psi        :      7.83s CPU      7.87s WALL (     588 calls)
     rdiaghg      :     19.77s CPU     21.01s WALL (     778 calls)
     regterg:over :    185.47s CPU    186.19s WALL (     588 calls)
     regterg:upda :    176.90s CPU    178.79s WALL (     588 calls)
     regterg:last :     64.37s CPU     64.63s WALL (     204 calls)
     rdiaghg:chol :      0.71s CPU      0.74s WALL (     778 calls)
     rdiaghg:inve :      0.57s CPU      0.59s WALL (     778 calls)
     rdiaghg:para :      1.72s CPU      1.74s WALL (    1556 calls)

     Called by h_psi:
     h_psi:calbec :    141.42s CPU    142.12s WALL (     788 calls)
     vloc_psi     :   3258.35s CPU   3272.60s WALL (     788 calls)
     add_vuspsi   :    211.53s CPU    212.51s WALL (     788 calls)

     General routines
     calbec       :    200.39s CPU    201.25s WALL (    1021 calls)
     fft          :   1161.35s CPU   1207.98s WALL (    2291 calls)
     ffts         :    654.30s CPU    656.69s WALL (    5167 calls)
     fftw         :   2703.06s CPU   2715.73s WALL (   51753 calls)
     interpolate  :    143.61s CPU    148.41s WALL (     203 calls)
 
     Parallel routines
     fft_scatt_xy :    721.49s CPU    727.16s WALL (   59211 calls)
     fft_scatt_yz :   1349.06s CPU   1360.97s WALL (   59211 calls)

     PAW routines
     PAW_pot      :    112.48s CPU    114.71s WALL (     209 calls)
 
     PWSCF        :      4h22m CPU      4h38m WALL

 
   This run was terminated on:   6:41:26   3Jun2020            

=------------------------------------------------------------------------------=
   JOB DONE.
=------------------------------------------------------------------------------=
