
     Program PWSCF v.6.5 starts on  4Jan2021 at 23:50: 2 

     This program is part of the open-source Quantum ESPRESSO suite
     for quantum simulation of materials; please cite
         "P. Giannozzi et al., J. Phys.:Condens. Matter 21 395502 (2009);
         "P. Giannozzi et al., J. Phys.:Condens. Matter 29 465901 (2017);
          URL http://www.quantum-espresso.org", 
     in publications or presentations arising from this work. More details at
     http://www.quantum-espresso.org/quote

     Parallel version (MPI & OpenMP), running on      24 processor cores
     Number of MPI processes:                24
     Threads/MPI process:                     1

     MPI processes distributed on     1 nodes
     R & G space division:  proc/nbgrp/npool/nimage =      24
     Waiting for input...
     Reading input from standard input

     Current dimensions of program PWSCF are:
     Max number of different atomic species (ntypx) = 10
     Max number of k-points (npk) =  40000
     Max angular momentum in pseudopotentials (lmaxx) =  3

     Atomic positions and unit cell read from directory:
     ./tmp/plata.save/                                                                                                                                                                                                                                               
 
               file Ag.pbe-dn-kjpaw_psl.0.1.UPF: wavefunction(s)  5S 5P 4D renormalized

     gamma-point specific algorithms are used

     Subspace diagonalization in iterative solution of the eigenvalue problem:
     one sub-group per band group will be used
     scalapack distributed-memory algorithm (size of sub-group:  4*  4 procs)

 
     Parallelization info
     --------------------
     sticks:   dense  smooth     PW     G-vecs:    dense   smooth      PW
     Min        1287     859    214               170560    92828   11614
     Max        1290     862    216               170574    92832   11628
     Sum       30933   20641   5169              4093603  2227899  278897
 


     bravais-lattice index     =            1
     lattice parameter (alat)  =      45.0000  a.u.
     unit-cell volume          =   91125.0000 (a.u.)^3
     number of atoms/cell      =            1
     number of atomic types    =            1
     number of electrons       =        11.00
     number of Kohn-Sham states=           10
     kinetic-energy cutoff     =      32.0000  Ry
     charge density cutoff     =     192.0000  Ry
     Exchange-correlation= SLA PW PBX PBC
                           (   1   4   3   4   0   0   0)

     celldm(1)=  45.000000  celldm(2)=   0.000000  celldm(3)=   0.000000
     celldm(4)=   0.000000  celldm(5)=   0.000000  celldm(6)=   0.000000

     crystal axes: (cart. coord. in units of alat)
               a(1) = (   1.000000   0.000000   0.000000 )  
               a(2) = (   0.000000   1.000000   0.000000 )  
               a(3) = (   0.000000   0.000000   1.000000 )  

     reciprocal axes: (cart. coord. in units 2 pi/alat)
               b(1) = (  1.000000  0.000000  0.000000 )  
               b(2) = (  0.000000  1.000000  0.000000 )  
               b(3) = (  0.000000  0.000000  1.000000 )  


     PseudoPot. # 1 for Ag read from file:
     ../../pseudo/Ag.pbe-dn-kjpaw_psl.0.1.UPF
     MD5 check sum: 2edc915f30f03476250949c796a6a376
     Pseudo is Projector augmented-wave + core cor, Zval = 11.0
     Generated using "atomic" code by A. Dal Corso v.5.0.2 svn rev. 9415
     Shape of augmentation charge: PSQ
     Using radial grid of 1237 points,  6 beta functions with: 
                l(1) =   0
                l(2) =   0
                l(3) =   1
                l(4) =   1
                l(5) =   2
                l(6) =   2
     Q(r) pseudized with 0 coefficients 


     atomic species   valence    mass     pseudopotential
        Ag            11.00   107.87000     Ag( 1.00)

     Starting magnetic structure 
     atomic species   magnetization
        Ag           0.500

     No symmetry found


                                    s                        frac. trans.

      isym =  1     identity                                     

 cryst.   s( 1) = (     1          0          0      )
                  (     0          1          0      )
                  (     0          0          1      )

 cart.    s( 1) = (  1.0000000  0.0000000  0.0000000 )
                  (  0.0000000  1.0000000  0.0000000 )
                  (  0.0000000  0.0000000  1.0000000 )


     point group C_1 (1)    
     there are  1 classes
     the character table:

       E    
A      1.00

     the symmetry operations in each class and the name of the first element:

     E        1
          identity                                               

   Cartesian axes

     site n.     atom                  positions (alat units)
         1           Ag  tau(   1) = (   0.0994489   0.0972594   0.1891731  )

   Crystallographic axes

     site n.     atom                  positions (cryst. coord.)
         1           Ag  tau(   1) = (  0.0994489  0.0972594  0.1891731  )

     number of k points=     1  Fermi-Dirac smearing, width (Ry)=  0.0020
                       cart. coord. in units 2pi/alat
        k(    1) = (   0.0000000   0.0000000   0.0000000), wk =   1.0000000

                       cryst. coord.
        k(    1) = (   0.0000000   0.0000000   0.0000000), wk =   1.0000000

     Dense  grid:  2046802 G-vectors     FFT dimensions: ( 200, 200, 200)

     Smooth grid:  1113950 G-vectors     FFT dimensions: ( 180, 180, 180)

     Dynamical RAM for                 wfc:       0.89 MB

     Dynamical RAM for     wfc (w. buffer):       0.89 MB

     Dynamical RAM for           str. fact:       1.30 MB

     Dynamical RAM for           local pot:       0.00 MB

     Dynamical RAM for          nlocal pot:       1.59 MB

     Dynamical RAM for                qrad:       7.95 MB

     Dynamical RAM for          rho,v,vnew:      24.29 MB

     Dynamical RAM for           G-vectors:       5.23 MB

     Dynamical RAM for          h,s,v(r/c):       0.00 MB

     Dynamical RAM for          <psi|beta>:       0.00 MB

     Dynamical RAM for                 psi:       3.54 MB

     Dynamical RAM for                hpsi:       3.54 MB

     Dynamical RAM for                spsi:       3.54 MB

     Dynamical RAM for      wfcinit/wfcrot:       1.77 MB

     Dynamical RAM for           addusdens:     244.64 MB

     Estimated static dynamical RAM per process >      60.34 MB

     Estimated max dynamical RAM per process >     304.98 MB

     Estimated total dynamical RAM >       7.15 GB
     Generating pointlists ...
     new r_m :   0.4125 (alat units) 18.5625 (a.u.) for type    1

     The potential is recalculated from file :
     ./tmp/plata.save/charge-density

     Starting wfcs are    9 randomized atomic wfcs +    1 random wfcs
     Checking if some PAW data can be deallocated... 

     Band Structure Calculation
     Davidson diagonalization with overlap

     Computing kpt #:     1  of     2
     total cpu time spent up to now is       36.1 secs

     Computing kpt #:     2  of     2
     total cpu time spent up to now is       58.2 secs

     ethr =  9.09E-11,  avg # of iterations = 60.5

     total cpu time spent up to now is       58.2 secs

     End of band structure calculation

 ------ SPIN UP ------------


          k = 0.0000 0.0000 0.0000 (139449 PWs)   bands (ev):

    -7.4585  -7.4585  -7.4585  -7.4585  -7.4584  -4.7207  -0.9671  -0.9668
    -0.9667  -0.2413

     occupation numbers 
     1.0000   1.0000   1.0000   1.0000   1.0000   1.0000   0.0000   0.0000
     0.0000   0.0000

 ------ SPIN DOWN ----------


          k = 0.0000 0.0000 0.0000 (139449 PWs)   bands (ev):

    -7.2510  -7.2510  -7.2510  -7.2510  -7.2510  -3.9479  -0.3118  -0.3115
    -0.3114  -0.2048

     occupation numbers 
     1.0000   1.0000   1.0000   1.0000   1.0000   0.0000   0.0000   0.0000
     0.0000   0.0000

     the Fermi energy is    -4.3343 ev

     Writing output data file ./tmp/plata.save/
 
     init_run     :     12.39s CPU     13.18s WALL (       1 calls)
     electrons    :     42.75s CPU     43.00s WALL (       1 calls)

     Called by init_run:
     wfcinit      :      0.00s CPU      0.01s WALL (       1 calls)
     wfcinit:atom :      0.01s CPU      0.02s WALL (       2 calls)
     wfcinit:wfcr :      1.25s CPU      1.26s WALL (       2 calls)
     potinit      :      4.76s CPU      5.10s WALL (       1 calls)
     hinit0       :      1.32s CPU      1.39s WALL (       1 calls)

     Called by electrons:
     c_bands      :     42.75s CPU     42.99s WALL (       1 calls)
     v_of_rho     :      3.19s CPU      3.35s WALL (       1 calls)
     v_h          :      0.24s CPU      0.24s WALL (       1 calls)
     v_xc         :      2.95s CPU      3.10s WALL (       1 calls)
     newd         :      2.54s CPU      2.82s WALL (       1 calls)
     PAW_pot      :      0.59s CPU      0.63s WALL (       1 calls)

     Called by c_bands:
     init_us_2    :      0.01s CPU      0.01s WALL (       2 calls)
     regterg      :     41.42s CPU     41.64s WALL (       7 calls)

     Called by sum_band:

     Called by *egterg:
     h_psi        :     36.70s CPU     36.88s WALL (     130 calls)
     s_psi        :      0.55s CPU      0.56s WALL (     130 calls)
     g_psi        :      0.09s CPU      0.09s WALL (     121 calls)
     rdiaghg      :      0.47s CPU      0.49s WALL (     123 calls)
     regterg:over :      1.56s CPU      1.56s WALL (     121 calls)
     regterg:upda :      1.96s CPU      1.97s WALL (     121 calls)
     regterg:last :      0.81s CPU      0.81s WALL (      19 calls)
     rdiaghg:chol :      0.04s CPU      0.04s WALL (     123 calls)
     rdiaghg:inve :      0.02s CPU      0.02s WALL (     123 calls)
     rdiaghg:para :      0.04s CPU      0.04s WALL (     246 calls)

     Called by h_psi:
     h_psi:calbec :      0.72s CPU      0.72s WALL (     130 calls)
     vloc_psi     :     35.26s CPU     35.43s WALL (     130 calls)
     add_vuspsi   :      0.55s CPU      0.56s WALL (     130 calls)

     General routines
     calbec       :      0.71s CPU      0.72s WALL (     130 calls)
     fft          :      3.14s CPU      3.20s WALL (      18 calls)
     ffts         :      0.21s CPU      0.23s WALL (       2 calls)
     fftw         :     29.51s CPU     29.64s WALL (     610 calls)
     interpolate  :      0.65s CPU      0.69s WALL (       2 calls)
     davcio       :      0.00s CPU      0.01s WALL (       4 calls)
 
     Parallel routines
     fft_scatt_xy :      5.52s CPU      5.55s WALL (     630 calls)
     fft_scatt_yz :      7.52s CPU      7.59s WALL (     630 calls)

     PAW routines
     PAW_pot      :      0.59s CPU      0.63s WALL (       1 calls)
 
     PWSCF        :     57.09s CPU     58.46s WALL

 
   This run was terminated on:  23:51: 0   4Jan2021            

=------------------------------------------------------------------------------=
   JOB DONE.
=------------------------------------------------------------------------------=
