
     Program PROJWFC v.6.5 starts on 13Feb2021 at 21:51:35 

     This program is part of the open-source Quantum ESPRESSO suite
     for quantum simulation of materials; please cite
         "P. Giannozzi et al., J. Phys.:Condens. Matter 21 395502 (2009);
         "P. Giannozzi et al., J. Phys.:Condens. Matter 29 465901 (2017);
          URL http://www.quantum-espresso.org", 
     in publications or presentations arising from this work. More details at
     http://www.quantum-espresso.org/quote

     Parallel version (MPI & OpenMP), running on      24 processor cores
     Number of MPI processes:                24
     Threads/MPI process:                     1

     MPI processes distributed on     1 nodes
     R & G space division:  proc/nbgrp/npool/nimage =      24

     Reading xml data from directory:

     ./tmp/ag13.save/
     Message from routine  set_nelup_neldw :
     BEWARE: non-integer number of up and down electrons!

     IMPORTANT: XC functional enforced from input :
     Exchange-correlation= PBE
                           (   1   4   3   4   0   0   0)
     Any further DFT definition will be discarded
     Please, verify this is what you really want

               file Ag.pbe-dn-kjpaw_psl.0.1.UPF: wavefunction(s)  5S 5P 4D renormalized
 
     Parallelization info
     --------------------
     sticks:   dense  smooth     PW     G-vecs:    dense   smooth      PW
     Min        2444    1396    348               445284   192344   24048
     Max        2446    1398    351               445294   192354   24054
     Sum       58673   33521   8389             10686985  4616327  577235
 
     Generating pointlists ...
     new r_m :   0.0482 (alat units)  2.1687 (a.u.) for type    1

     Check: negative core charge=   -0.000001

     Gaussian broadening (read from file): ngauss,degauss= -99    0.002000


     Calling projwave .... 
     linear algebra parallelized on  16 procs
     gamma-point specific algorithms are used
 
  Problem Sizes 
  natomwfc =          117
  nx       =           30
  nbnd     =           86
  nkstot   =            2
  npwx     =        12027
  nkb      =          234
 

     Atomic states used for projection
     (read from pseudopotential files):

     state #   1: atom   1 (Ag ), wfc  1 (l=0 m= 1)
     state #   2: atom   1 (Ag ), wfc  2 (l=1 m= 1)
     state #   3: atom   1 (Ag ), wfc  2 (l=1 m= 2)
     state #   4: atom   1 (Ag ), wfc  2 (l=1 m= 3)
     state #   5: atom   1 (Ag ), wfc  3 (l=2 m= 1)
     state #   6: atom   1 (Ag ), wfc  3 (l=2 m= 2)
     state #   7: atom   1 (Ag ), wfc  3 (l=2 m= 3)
     state #   8: atom   1 (Ag ), wfc  3 (l=2 m= 4)
     state #   9: atom   1 (Ag ), wfc  3 (l=2 m= 5)
     state #  10: atom   2 (Ag ), wfc  1 (l=0 m= 1)
     state #  11: atom   2 (Ag ), wfc  2 (l=1 m= 1)
     state #  12: atom   2 (Ag ), wfc  2 (l=1 m= 2)
     state #  13: atom   2 (Ag ), wfc  2 (l=1 m= 3)
     state #  14: atom   2 (Ag ), wfc  3 (l=2 m= 1)
     state #  15: atom   2 (Ag ), wfc  3 (l=2 m= 2)
     state #  16: atom   2 (Ag ), wfc  3 (l=2 m= 3)
     state #  17: atom   2 (Ag ), wfc  3 (l=2 m= 4)
     state #  18: atom   2 (Ag ), wfc  3 (l=2 m= 5)
     state #  19: atom   3 (Ag ), wfc  1 (l=0 m= 1)
     state #  20: atom   3 (Ag ), wfc  2 (l=1 m= 1)
     state #  21: atom   3 (Ag ), wfc  2 (l=1 m= 2)
     state #  22: atom   3 (Ag ), wfc  2 (l=1 m= 3)
     state #  23: atom   3 (Ag ), wfc  3 (l=2 m= 1)
     state #  24: atom   3 (Ag ), wfc  3 (l=2 m= 2)
     state #  25: atom   3 (Ag ), wfc  3 (l=2 m= 3)
     state #  26: atom   3 (Ag ), wfc  3 (l=2 m= 4)
     state #  27: atom   3 (Ag ), wfc  3 (l=2 m= 5)
     state #  28: atom   4 (Ag ), wfc  1 (l=0 m= 1)
     state #  29: atom   4 (Ag ), wfc  2 (l=1 m= 1)
     state #  30: atom   4 (Ag ), wfc  2 (l=1 m= 2)
     state #  31: atom   4 (Ag ), wfc  2 (l=1 m= 3)
     state #  32: atom   4 (Ag ), wfc  3 (l=2 m= 1)
     state #  33: atom   4 (Ag ), wfc  3 (l=2 m= 2)
     state #  34: atom   4 (Ag ), wfc  3 (l=2 m= 3)
     state #  35: atom   4 (Ag ), wfc  3 (l=2 m= 4)
     state #  36: atom   4 (Ag ), wfc  3 (l=2 m= 5)
     state #  37: atom   5 (Ag ), wfc  1 (l=0 m= 1)
     state #  38: atom   5 (Ag ), wfc  2 (l=1 m= 1)
     state #  39: atom   5 (Ag ), wfc  2 (l=1 m= 2)
     state #  40: atom   5 (Ag ), wfc  2 (l=1 m= 3)
     state #  41: atom   5 (Ag ), wfc  3 (l=2 m= 1)
     state #  42: atom   5 (Ag ), wfc  3 (l=2 m= 2)
     state #  43: atom   5 (Ag ), wfc  3 (l=2 m= 3)
     state #  44: atom   5 (Ag ), wfc  3 (l=2 m= 4)
     state #  45: atom   5 (Ag ), wfc  3 (l=2 m= 5)
     state #  46: atom   6 (Ag ), wfc  1 (l=0 m= 1)
     state #  47: atom   6 (Ag ), wfc  2 (l=1 m= 1)
     state #  48: atom   6 (Ag ), wfc  2 (l=1 m= 2)
     state #  49: atom   6 (Ag ), wfc  2 (l=1 m= 3)
     state #  50: atom   6 (Ag ), wfc  3 (l=2 m= 1)
     state #  51: atom   6 (Ag ), wfc  3 (l=2 m= 2)
     state #  52: atom   6 (Ag ), wfc  3 (l=2 m= 3)
     state #  53: atom   6 (Ag ), wfc  3 (l=2 m= 4)
     state #  54: atom   6 (Ag ), wfc  3 (l=2 m= 5)
     state #  55: atom   7 (Ag ), wfc  1 (l=0 m= 1)
     state #  56: atom   7 (Ag ), wfc  2 (l=1 m= 1)
     state #  57: atom   7 (Ag ), wfc  2 (l=1 m= 2)
     state #  58: atom   7 (Ag ), wfc  2 (l=1 m= 3)
     state #  59: atom   7 (Ag ), wfc  3 (l=2 m= 1)
     state #  60: atom   7 (Ag ), wfc  3 (l=2 m= 2)
     state #  61: atom   7 (Ag ), wfc  3 (l=2 m= 3)
     state #  62: atom   7 (Ag ), wfc  3 (l=2 m= 4)
     state #  63: atom   7 (Ag ), wfc  3 (l=2 m= 5)
     state #  64: atom   8 (Ag ), wfc  1 (l=0 m= 1)
     state #  65: atom   8 (Ag ), wfc  2 (l=1 m= 1)
     state #  66: atom   8 (Ag ), wfc  2 (l=1 m= 2)
     state #  67: atom   8 (Ag ), wfc  2 (l=1 m= 3)
     state #  68: atom   8 (Ag ), wfc  3 (l=2 m= 1)
     state #  69: atom   8 (Ag ), wfc  3 (l=2 m= 2)
     state #  70: atom   8 (Ag ), wfc  3 (l=2 m= 3)
     state #  71: atom   8 (Ag ), wfc  3 (l=2 m= 4)
     state #  72: atom   8 (Ag ), wfc  3 (l=2 m= 5)
     state #  73: atom   9 (Ag ), wfc  1 (l=0 m= 1)
     state #  74: atom   9 (Ag ), wfc  2 (l=1 m= 1)
     state #  75: atom   9 (Ag ), wfc  2 (l=1 m= 2)
     state #  76: atom   9 (Ag ), wfc  2 (l=1 m= 3)
     state #  77: atom   9 (Ag ), wfc  3 (l=2 m= 1)
     state #  78: atom   9 (Ag ), wfc  3 (l=2 m= 2)
     state #  79: atom   9 (Ag ), wfc  3 (l=2 m= 3)
     state #  80: atom   9 (Ag ), wfc  3 (l=2 m= 4)
     state #  81: atom   9 (Ag ), wfc  3 (l=2 m= 5)
     state #  82: atom  10 (Ag ), wfc  1 (l=0 m= 1)
     state #  83: atom  10 (Ag ), wfc  2 (l=1 m= 1)
     state #  84: atom  10 (Ag ), wfc  2 (l=1 m= 2)
     state #  85: atom  10 (Ag ), wfc  2 (l=1 m= 3)
     state #  86: atom  10 (Ag ), wfc  3 (l=2 m= 1)
     state #  87: atom  10 (Ag ), wfc  3 (l=2 m= 2)
     state #  88: atom  10 (Ag ), wfc  3 (l=2 m= 3)
     state #  89: atom  10 (Ag ), wfc  3 (l=2 m= 4)
     state #  90: atom  10 (Ag ), wfc  3 (l=2 m= 5)
     state #  91: atom  11 (Ag ), wfc  1 (l=0 m= 1)
     state #  92: atom  11 (Ag ), wfc  2 (l=1 m= 1)
     state #  93: atom  11 (Ag ), wfc  2 (l=1 m= 2)
     state #  94: atom  11 (Ag ), wfc  2 (l=1 m= 3)
     state #  95: atom  11 (Ag ), wfc  3 (l=2 m= 1)
     state #  96: atom  11 (Ag ), wfc  3 (l=2 m= 2)
     state #  97: atom  11 (Ag ), wfc  3 (l=2 m= 3)
     state #  98: atom  11 (Ag ), wfc  3 (l=2 m= 4)
     state #  99: atom  11 (Ag ), wfc  3 (l=2 m= 5)
     state # 100: atom  12 (Ag ), wfc  1 (l=0 m= 1)
     state # 101: atom  12 (Ag ), wfc  2 (l=1 m= 1)
     state # 102: atom  12 (Ag ), wfc  2 (l=1 m= 2)
     state # 103: atom  12 (Ag ), wfc  2 (l=1 m= 3)
     state # 104: atom  12 (Ag ), wfc  3 (l=2 m= 1)
     state # 105: atom  12 (Ag ), wfc  3 (l=2 m= 2)
     state # 106: atom  12 (Ag ), wfc  3 (l=2 m= 3)
     state # 107: atom  12 (Ag ), wfc  3 (l=2 m= 4)
     state # 108: atom  12 (Ag ), wfc  3 (l=2 m= 5)
     state # 109: atom  13 (Ag ), wfc  1 (l=0 m= 1)
     state # 110: atom  13 (Ag ), wfc  2 (l=1 m= 1)
     state # 111: atom  13 (Ag ), wfc  2 (l=1 m= 2)
     state # 112: atom  13 (Ag ), wfc  2 (l=1 m= 3)
     state # 113: atom  13 (Ag ), wfc  3 (l=2 m= 1)
     state # 114: atom  13 (Ag ), wfc  3 (l=2 m= 2)
     state # 115: atom  13 (Ag ), wfc  3 (l=2 m= 3)
     state # 116: atom  13 (Ag ), wfc  3 (l=2 m= 4)
     state # 117: atom  13 (Ag ), wfc  3 (l=2 m= 5)

 k =   0.0000000000  0.0000000000  0.0000000000
==== e(   1) =   -10.05285 eV ==== 
     psi = 0.172*[#  64]+0.023*[#  21]+0.023*[#  93]+0.023*[#  76]+0.023*[# 112]
          +0.019*[#   1]+0.019*[#  10]+0.019*[#  19]+0.019*[#  28]+0.019*[#  37]
          +0.019*[#  46]+0.019*[#  55]+0.019*[#  73]+0.019*[#  82]+0.019*[#  91]
          +0.019*[# 100]+0.019*[# 109]+0.018*[#  29]+0.018*[# 101]+0.017*[#  11]
          +0.017*[#  38]+0.015*[#  26]+0.015*[#  98]+0.014*[#  80]+0.014*[# 116]
          +0.013*[#   9]+0.013*[#  54]+0.012*[#  15]+0.012*[#  42]+0.010*[#   3]
          +0.010*[#   4]+0.010*[#  34]+0.010*[#  48]+0.010*[#  49]+0.010*[# 106]
          +0.010*[#  56]+0.010*[#  83]+0.010*[#  61]+0.010*[#  88]+0.009*[#  32]
          +0.009*[# 104]+0.008*[#  60]+0.008*[#  87]+0.008*[#  58]+0.008*[#  85]
          +0.007*[#  14]+0.007*[#  41]+0.007*[#  57]+0.007*[#  84]+0.007*[#  63]
          +0.007*[#  90]+0.006*[#  77]+0.006*[# 113]+0.006*[#  23]+0.006*[#  95]
          +0.006*[#  12]+0.006*[#  39]+0.005*[#   6]+0.005*[#   7]+0.005*[#  51]
          +0.005*[#  52]+0.005*[#  16]+0.005*[#  31]+0.005*[#  43]+0.005*[# 103]
          +0.004*[#  33]+0.004*[#  81]+0.004*[# 105]+0.004*[# 117]+0.004*[#   2]
          +0.004*[#  47]+0.003*[#  27]+0.003*[#  99]+0.002*[#  13]+0.002*[#  40]
          +0.002*[#  30]+0.002*[# 102]+0.002*[#   5]+0.002*[#  18]+0.002*[#  45]
          +0.002*[#  50]+0.001*[#  75]+0.001*[# 111]+0.001*[#  22]+0.001*[#  94]
          +0.001*[#  36]+0.001*[# 108]
    |psi|^2 = 0.997
==== e(   2) =    -9.66493 eV ==== 
     psi = 0.266*[#  71]+0.203*[#  72]+0.077*[#  68]+0.045*[#  27]+0.045*[#  99]
          +0.022*[#   7]+0.022*[#  52]+0.018*[#  59]+0.018*[#  86]+0.016*[#  80]
          +0.016*[# 116]+0.015*[#  15]+0.015*[#  42]+0.014*[#   8]+0.014*[#  53]
          +0.014*[#  70]+0.013*[#  61]+0.013*[#  88]+0.011*[#  62]+0.011*[#  89]
          +0.007*[#  16]+0.007*[#  43]+0.005*[#  73]+0.005*[# 109]+0.005*[#   1]
          +0.005*[#  17]+0.005*[#  44]+0.005*[#  46]+0.004*[#  19]+0.004*[#  91]
          +0.003*[#  63]+0.003*[#  90]+0.003*[#  22]+0.003*[#  94]+0.003*[#  23]
          +0.003*[#  60]+0.003*[#  87]+0.003*[#  95]+0.002*[#   9]+0.002*[#  32]
          +0.002*[#  54]+0.002*[# 104]+0.002*[#   6]+0.002*[#  51]+0.002*[#  33]
          +0.002*[# 105]+0.002*[#  36]+0.002*[# 108]+0.002*[#  10]+0.002*[#  37]
          +0.002*[#  57]+0.002*[#  84]+0.001*[#   4]+0.001*[#  49]+0.001*[#   2]
          +0.001*[#   5]+0.001*[#  25]+0.001*[#  28]+0.001*[#  97]+0.001*[# 100]
          +0.001*[#  12]+0.001*[#  39]+0.001*[#  47]+0.001*[#  50]+0.001*[#  56]
          +0.001*[#  83]
    |psi|^2 = 0.998
==== e(   3) =    -9.66475 eV ==== 
     psi = 0.231*[#  70]+0.144*[#  72]+0.107*[#  71]+0.046*[#  69]+0.032*[#  68]
          +0.028*[#  81]+0.028*[# 117]+0.024*[#  60]+0.024*[#  87]+0.018*[#   5]
          +0.018*[#  50]+0.014*[#   6]+0.014*[#  51]+0.014*[#  16]+0.014*[#  43]
          +0.013*[#  79]+0.013*[# 115]+0.010*[#  26]+0.010*[#  98]+0.009*[#  55]
          +0.009*[#  82]+0.007*[#  59]+0.007*[#  86]+0.007*[#  32]+0.007*[# 104]
          +0.006*[#  17]+0.006*[#  44]+0.006*[#  62]+0.006*[#  89]+0.005*[#  18]
          +0.005*[#  45]+0.004*[#  61]+0.004*[#  88]+0.004*[#   9]+0.003*[#   8]
          +0.004*[#  28]+0.004*[#  54]+0.003*[#  53]+0.004*[# 100]+0.003*[#  15]
          +0.003*[#  42]+0.003*[#   7]+0.003*[#  52]+0.002*[#  33]+0.002*[# 105]
          +0.002*[#  19]+0.002*[#  14]+0.002*[#  27]+0.002*[#  35]+0.002*[#  91]
          +0.002*[#   2]+0.002*[#  41]+0.002*[#  99]+0.002*[# 107]+0.002*[#  47]
          +0.002*[#  63]+0.002*[#  75]+0.002*[#  77]+0.002*[#  90]+0.002*[# 111]
          +0.002*[# 113]+0.002*[#  24]+0.002*[#  56]+0.002*[#  78]+0.002*[#  83]
          +0.002*[#  96]+0.002*[# 114]+0.001*[#  13]+0.001*[#  34]+0.001*[#  36]
          +0.001*[#  40]+0.001*[# 106]+0.001*[#  80]+0.001*[# 108]+0.001*[#  73]
          +0.001*[# 109]+0.001*[# 116]
    |psi|^2 = 0.998
==== e(   4) =    -9.66452 eV ==== 
     psi = 0.298*[#  70]+0.176*[#  71]+0.050*[#  72]+0.035*[#  68]+0.032*[#  79]
          +0.032*[# 115]+0.029*[#   8]+0.028*[#  53]+0.019*[#  81]+0.019*[# 117]
          +0.015*[#  32]+0.015*[# 104]+0.014*[#  33]+0.014*[# 105]+0.011*[#  14]
          +0.011*[#  41]+0.010*[#  59]+0.010*[#  86]+0.008*[#   6]+0.008*[#  51]
          +0.007*[#   9]+0.007*[#  15]+0.007*[#  42]+0.007*[#  54]+0.006*[#  35]
          +0.006*[# 107]+0.006*[#  34]+0.006*[# 106]+0.005*[#  10]+0.005*[#  37]
          +0.005*[#  63]+0.005*[#  90]+0.005*[#   1]+0.005*[#  46]+0.005*[#  24]
          +0.005*[#  96]+0.004*[#  17]+0.004*[#  44]+0.003*[#  26]+0.003*[#  78]
          +0.003*[#  98]+0.003*[# 114]+0.003*[#   3]+0.003*[#  48]+0.002*[#  61]
          +0.002*[#  88]+0.002*[#  19]+0.002*[#  74]+0.002*[#  91]+0.002*[# 110]
          +0.002*[#   5]+0.002*[#  27]+0.002*[#  50]+0.002*[#  73]+0.002*[#  99]
          +0.002*[# 109]+0.002*[#  28]+0.002*[# 100]+0.001*[#  31]+0.001*[#  55]
          +0.001*[#  75]+0.001*[#  82]+0.001*[# 103]+0.001*[# 111]+0.001*[#  69]
          
    |psi|^2 = 0.998
==== e(   5) =    -9.66424 eV ==== 
     psi = 0.313*[#  69]+0.119*[#  68]+0.119*[#  72]+0.024*[#  32]+0.024*[# 104]
          +0.022*[#  33]+0.022*[# 105]+0.018*[#  26]+0.018*[#  98]+0.017*[#  16]
          +0.017*[#  43]+0.015*[#   9]+0.015*[#  54]+0.014*[#  24]+0.014*[#  96]
          +0.010*[#  36]+0.010*[# 108]+0.009*[#  23]+0.009*[#  95]+0.008*[#  62]
          +0.008*[#  89]+0.007*[#  15]+0.007*[#  42]+0.007*[#  80]+0.007*[# 116]
          +0.007*[#  79]+0.007*[# 115]+0.007*[#   5]+0.007*[#  50]+0.007*[#  71]
          +0.006*[#  10]+0.006*[#  37]+0.005*[#  19]+0.005*[#  91]+0.005*[#  81]
          +0.005*[# 117]+0.005*[#  18]+0.005*[#  45]+0.004*[#  61]+0.004*[#  88]
          +0.004*[#   1]+0.004*[#  46]+0.003*[#  30]+0.003*[#  70]+0.003*[# 102]
          +0.002*[#  35]+0.002*[# 107]+0.002*[#  25]+0.002*[#  97]+0.002*[#   8]
          +0.002*[#  53]+0.001*[#  21]+0.001*[#  73]+0.001*[# 109]+0.001*[#  13]
          +0.001*[#  20]+0.001*[#  40]+0.001*[#  77]+0.001*[#  93]+0.001*[# 113]
          +0.001*[#  92]
    |psi|^2 = 0.998
==== e(   6) =    -9.66404 eV ==== 
     psi = 0.297*[#  68]+0.199*[#  69]+0.045*[#  72]+0.036*[#  14]+0.036*[#  41]
          +0.034*[#  24]+0.034*[#  96]+0.030*[#  34]+0.030*[# 106]+0.015*[#  70]
          +0.014*[#  63]+0.014*[#  90]+0.010*[#  80]+0.010*[# 116]+0.010*[#  62]
          +0.010*[#  89]+0.008*[#  59]+0.008*[#  86]+0.008*[#  18]+0.008*[#  45]
          +0.007*[#  28]+0.007*[# 100]+0.006*[#  77]+0.006*[# 113]+0.006*[#  35]
          +0.006*[# 107]+0.005*[#  61]+0.005*[#  73]+0.005*[#  88]+0.005*[# 109]
          +0.004*[#  71]+0.003*[#  17]+0.003*[#  44]+0.003*[#  27]+0.003*[#  55]
          +0.003*[#  82]+0.003*[#  99]+0.003*[#  79]+0.003*[# 115]+0.002*[#   6]
          +0.002*[#  51]+0.002*[#  20]+0.002*[#  31]+0.002*[# 103]+0.002*[#  26]
          +0.002*[#  58]+0.002*[#  85]+0.002*[#  92]+0.002*[#  98]+0.002*[#  15]
          +0.002*[#   8]+0.002*[#  36]+0.002*[#  42]+0.002*[#  53]+0.002*[# 108]
          +0.001*[#   7]+0.001*[#  11]+0.001*[#  12]+0.001*[#  38]+0.001*[#  39]
          +0.001*[#  52]+0.001*[#  19]+0.001*[#  33]+0.001*[#  91]+0.001*[# 105]
          +0.001*[#  25]+0.001*[#  97]
    |psi|^2 = 0.998
==== e(   7) =    -8.69450 eV ==== 
     psi = 0.089*[#  67]+0.037*[#  27]+0.037*[#  99]+0.035*[#  16]+0.035*[#  43]
          +0.033*[#  59]+0.033*[#  86]+0.027*[#  81]+0.027*[# 117]+0.026*[#  33]
          +0.026*[# 105]+0.024*[#  32]+0.024*[# 104]+0.024*[#   9]+0.024*[#  54]
          +0.020*[#  65]+0.020*[#   1]+0.020*[#  46]+0.016*[#  73]+0.016*[# 109]
          +0.015*[#  60]+0.015*[#  87]+0.014*[#  79]+0.014*[# 115]+0.014*[#   6]
          +0.014*[#  51]+0.012*[#  18]+0.012*[#  28]+0.012*[#  45]+0.012*[# 100]
          +0.012*[#  26]+0.012*[#  98]+0.011*[#   8]+0.011*[#  53]+0.009*[#  24]
          +0.009*[#  96]+0.008*[#  62]+0.008*[#  89]+0.007*[#   3]+0.007*[#  48]
          +0.007*[#  80]+0.007*[# 116]+0.007*[#  77]+0.007*[# 113]+0.006*[#  13]
          +0.006*[#  40]+0.006*[#  17]+0.006*[#  44]+0.006*[#  66]+0.005*[#  35]
          +0.005*[# 107]+0.005*[#  56]+0.005*[#  83]+0.005*[#  14]+0.005*[#  41]
          +0.005*[#  22]+0.005*[#  29]+0.005*[#  94]+0.005*[# 101]+0.004*[#   5]
          +0.004*[#  50]+0.004*[#  76]+0.004*[# 112]+0.003*[#  55]+0.003*[#  82]
          +0.003*[#   7]+0.003*[#  52]+0.003*[#  63]+0.003*[#  75]+0.003*[#  90]
          +0.003*[#  30]+0.003*[# 102]+0.003*[# 111]+0.002*[#  25]+0.002*[#  97]
          +0.002*[#  74]+0.002*[# 110]+0.001*[#  36]+0.001*[#  58]+0.001*[#  78]
          +0.001*[#  85]+0.001*[# 108]+0.001*[# 114]+0.001*[#  20]+0.001*[#  61]
          +0.001*[#  88]+0.001*[#  92]
    |psi|^2 = 0.996
==== e(   8) =    -8.69421 eV ==== 
     psi = 0.071*[#  65]+0.045*[#  24]+0.045*[#  96]+0.030*[#  15]+0.030*[#  42]
          +0.028*[#  79]+0.028*[# 115]+0.026*[#  67]+0.025*[#  10]+0.025*[#  37]
          +0.020*[#  80]+0.020*[# 116]+0.020*[#  63]+0.020*[#  90]+0.019*[#   8]
          +0.019*[#  53]+0.018*[#  34]+0.018*[#  66]+0.018*[# 106]+0.017*[#   5]
          +0.017*[#  50]+0.016*[#  60]+0.016*[#  87]+0.016*[#  14]+0.016*[#  41]
          +0.015*[#  32]+0.015*[# 104]+0.013*[#   9]+0.013*[#  54]+0.012*[#  36]
          +0.012*[# 108]+0.011*[#  33]+0.011*[# 105]+0.011*[#  62]+0.011*[#  89]
          +0.010*[#   6]+0.010*[#  51]+0.010*[#  59]+0.010*[#  86]+0.009*[#  26]
          +0.009*[#  73]+0.009*[#  98]+0.009*[# 109]+0.008*[#  55]+0.008*[#  82]
          +0.007*[#  57]+0.007*[#  77]+0.007*[#  84]+0.007*[# 113]+0.006*[#  11]
          +0.006*[#  38]+0.005*[#  20]+0.005*[#  92]+0.005*[#   4]+0.005*[#  49]
          +0.004*[#  19]+0.004*[#  91]+0.004*[#  16]+0.004*[#  31]+0.004*[#  43]
          +0.004*[# 103]+0.004*[#  76]+0.004*[# 112]+0.003*[#  28]+0.003*[#  74]
          +0.003*[# 100]+0.003*[# 110]+0.003*[#  27]+0.003*[#  99]+0.003*[#  12]
          +0.003*[#  39]+0.002*[#  30]+0.002*[# 102]+0.002*[#  17]+0.002*[#  44]
          +0.002*[#  78]+0.002*[# 114]+0.002*[#   1]+0.002*[#   2]+0.002*[#  46]
          +0.002*[#  47]+0.002*[#  18]+0.002*[#  35]+0.002*[#  45]+0.002*[# 107]
          +0.001*[#  21]+0.002*[#  25]+0.001*[#  93]+0.001*[#  97]
    |psi|^2 = 0.996
==== e(   9) =    -8.69406 eV ==== 
     psi = 0.092*[#  66]+0.032*[#  61]+0.032*[#  88]+0.032*[#  14]+0.032*[#  41]
          +0.028*[#  81]+0.028*[# 117]+0.027*[#   7]+0.027*[#  52]+0.026*[#  34]
          +0.026*[# 106]+0.024*[#  65]+0.023*[#  26]+0.023*[#  98]+0.021*[#  19]
          +0.022*[#  91]+0.020*[#   8]+0.020*[#  53]+0.017*[#  80]+0.017*[# 116]
          +0.017*[#  62]+0.017*[#  89]+0.015*[#  27]+0.015*[#  99]+0.015*[#  32]
          +0.015*[# 104]+0.015*[#  55]+0.015*[#  82]+0.014*[#  23]+0.014*[#  95]
          +0.013*[#  79]+0.013*[# 115]+0.012*[#  15]+0.012*[#  42]+0.010*[#  28]
          +0.010*[# 100]+0.010*[#  17]+0.010*[#  44]+0.008*[#  35]+0.008*[# 107]
          +0.007*[#  21]+0.007*[#  93]+0.007*[#   5]+0.007*[#  33]+0.007*[# 105]
          +0.007*[#  50]+0.006*[#  90]+0.006*[#   6]+0.006*[#  63]+0.006*[#  51]
          +0.006*[#  58]+0.006*[#  85]+0.004*[#  12]+0.004*[#  39]+0.004*[#   1]
          +0.004*[#   2]+0.004*[#  46]+0.004*[#  47]+0.004*[#  75]+0.004*[# 111]
          +0.004*[#  18]+0.004*[#  29]+0.004*[#  45]+0.004*[# 101]+0.003*[#  24]
          +0.003*[#  96]+0.002*[#  31]+0.002*[#  56]+0.002*[#  83]+0.002*[# 103]
          +0.002*[#   4]+0.002*[#  11]+0.002*[#  16]+0.002*[#  38]+0.002*[#  43]
          +0.002*[#  49]+0.002*[#  30]+0.002*[# 102]+0.001*[#  74]+0.001*[# 110]
          +0.001*[#  22]+0.001*[#  73]+0.001*[#  76]+0.001*[#  94]+0.001*[# 109]
          +0.001*[# 112]
    |psi|^2 = 0.996
==== e(  10) =    -8.55009 eV ==== 
     psi = 0.062*[#  99]+0.062*[#  27]+0.047*[#  79]+0.047*[# 115]+0.043*[#   7]
          +0.043*[#  52]+0.039*[#  59]+0.039*[#  86]+0.032*[#  62]+0.032*[#  89]
          +0.026*[#  17]+0.026*[#  44]+0.026*[#   5]+0.026*[#  50]+0.023*[#  16]
          +0.023*[#  43]+0.023*[#  81]+0.022*[# 117]+0.021*[#  32]+0.021*[# 104]
          +0.021*[#  26]+0.021*[#  98]+0.020*[#  18]+0.020*[#  45]+0.020*[#  33]
          +0.020*[# 105]+0.018*[#  60]+0.018*[#  87]+0.018*[#  61]+0.018*[#  88]
          +0.015*[#  15]+0.015*[#  42]+0.013*[#   9]+0.013*[#  54]+0.009*[#  35]
          +0.009*[# 107]+0.004*[#  63]+0.004*[#  90]+0.004*[#   6]+0.004*[#  51]
          +0.004*[#  77]+0.004*[# 113]+0.003*[#  34]+0.003*[# 106]+0.002*[#  25]
          +0.002*[#  97]+0.002*[#  23]+0.002*[#  95]+0.001*[#  36]+0.001*[# 108]
          
    |psi|^2 = 0.996
==== e(  11) =    -8.54976 eV ==== 
     psi = 0.120*[#   8]+0.120*[#  53]+0.053*[#  79]+0.053*[# 115]+0.050*[#  16]
          +0.050*[#  43]+0.036*[#  81]+0.036*[# 117]+0.035*[#  33]+0.035*[# 105]
          +0.031*[#  27]+0.031*[#  99]+0.026*[#  34]+0.026*[# 106]+0.020*[#  62]
          +0.020*[#  89]+0.020*[#  97]+0.019*[#  25]+0.017*[#  78]+0.017*[# 114]
          +0.014*[#  24]+0.014*[#  96]+0.013*[#  80]+0.013*[# 116]+0.012*[#  26]
          +0.012*[#  98]+0.011*[#  15]+0.011*[#  42]+0.008*[#   7]+0.008*[#  52]
          +0.007*[#   6]+0.007*[#  51]+0.005*[#  32]+0.005*[# 104]+0.004*[#  14]
          +0.004*[#  35]+0.004*[# 107]+0.004*[#  41]+0.002*[#  18]+0.002*[#  36]
          +0.002*[#  45]+0.002*[#  61]+0.002*[#  88]+0.002*[# 108]+0.001*[#  63]
          +0.001*[#  90]+0.001*[#  17]+0.001*[#  44]+0.001*[#   5]+0.001*[#  50]
          
    |psi|^2 = 0.996
==== e(  12) =    -8.54947 eV ==== 
     psi = 0.068*[#  59]+0.067*[#  86]+0.047*[#  32]+0.047*[# 104]+0.042*[#   5]
          +0.042*[#  50]+0.034*[#  79]+0.034*[# 115]+0.034*[#  63]+0.034*[#  90]
          +0.030*[#  35]+0.030*[# 107]+0.028*[#  17]+0.028*[#  44]+0.027*[#  34]
          +0.027*[# 106]+0.025*[#  81]+0.025*[# 117]+0.022*[#   6]+0.022*[#  51]
          +0.019*[#  14]+0.019*[#  41]+0.017*[#  60]+0.017*[#  87]+0.016*[#  80]
          +0.016*[# 116]+0.013*[#  27]+0.014*[#  99]+0.013*[#  95]+0.013*[#  23]
          +0.012*[#  18]+0.012*[#  45]+0.011*[#  24]+0.011*[#  96]+0.008*[#  77]
          +0.008*[# 113]+0.007*[#  62]+0.007*[#  89]+0.006*[#  15]+0.006*[#  42]
          +0.006*[#   8]+0.006*[#  53]+0.005*[#  16]+0.005*[#  43]+0.003*[#  36]
          +0.003*[# 108]+0.001*[#   9]+0.001*[#  54]
    |psi|^2 = 0.996
==== e(  13) =    -8.54910 eV ==== 
     psi = 0.112*[#  96]+0.112*[#  24]+0.076*[#  14]+0.076*[#  41]+0.038*[#  33]
          +0.038*[# 105]+0.036*[#  36]+0.036*[# 108]+0.035*[#  62]+0.035*[#  89]
          +0.032*[#  81]+0.032*[# 117]+0.021*[#   6]+0.021*[#  51]+0.017*[#  61]
          +0.017*[#  88]+0.015*[#  15]+0.015*[#  42]+0.015*[#  27]+0.015*[#  99]
          +0.015*[#  32]+0.014*[# 104]+0.012*[#  18]+0.012*[#  45]+0.012*[#   9]
          +0.012*[#  54]+0.009*[#  80]+0.009*[# 116]+0.007*[#  60]+0.007*[#  87]
          +0.006*[#  78]+0.006*[# 114]+0.006*[#  59]+0.006*[#  86]+0.006*[#  79]
          +0.006*[# 115]+0.005*[#  16]+0.005*[#  43]+0.005*[#  35]+0.005*[# 107]
          +0.004*[#  63]+0.004*[#  90]+0.004*[#  34]+0.004*[# 106]+0.002*[#   7]
          +0.002*[#  52]+0.001*[#   5]+0.001*[#  50]
    |psi|^2 = 0.996
==== e(  14) =    -8.50968 eV ==== 
     psi = 0.064*[# 113]+0.064*[#  77]+0.052*[#   7]+0.051*[#  52]+0.046*[#  62]
          +0.046*[#  89]+0.042*[#   6]+0.042*[#  51]+0.042*[#  61]+0.042*[#  88]
          +0.040*[#  45]+0.040*[#  18]+0.030*[#  95]+0.030*[#  23]+0.028*[# 116]
          +0.028*[#  80]+0.028*[#  98]+0.027*[#  26]+0.023*[#  60]+0.023*[#  87]
          +0.019*[#   8]+0.018*[#  53]+0.018*[#  36]+0.018*[# 108]+0.010*[#  14]
          +0.010*[#  41]+0.008*[#  81]+0.008*[# 117]+0.008*[#  25]+0.008*[#  97]
          +0.006*[#  32]+0.006*[# 104]+0.005*[#  27]+0.005*[#  99]+0.004*[#  28]
          +0.004*[# 100]+0.004*[#  34]+0.004*[# 106]+0.003*[#  10]+0.003*[#  37]
          +0.003*[#  63]+0.003*[#  90]+0.003*[#  35]+0.003*[# 107]+0.003*[#  17]
          +0.003*[#  44]+0.003*[#  59]+0.003*[#  86]+0.002*[#  19]+0.002*[#  91]
          +0.002*[#  16]+0.002*[#  43]+0.001*[#  78]+0.001*[# 114]+0.001*[#  33]
          +0.001*[# 105]+0.001*[#  24]+0.001*[#  96]
    |psi|^2 = 0.998
==== e(  15) =    -8.50947 eV ==== 
     psi = 0.062*[#  35]+0.062*[# 107]+0.059*[#   5]+0.059*[#  50]+0.054*[#  17]
          +0.054*[#  44]+0.051*[#  97]+0.051*[# 114]+0.051*[#  25]+0.051*[#  78]
          +0.043*[#   9]+0.042*[#  54]+0.032*[#  16]+0.032*[#  43]+0.024*[#  33]
          +0.024*[# 105]+0.019*[#  18]+0.019*[#  45]+0.016*[#  23]+0.016*[#  95]
          +0.012*[#  36]+0.012*[#  60]+0.012*[#  87]+0.012*[# 108]+0.008*[# 113]
          +0.008*[#  77]+0.008*[#  61]+0.008*[#  88]+0.007*[#   7]+0.007*[#  52]
          +0.007*[#   6]+0.007*[#  51]+0.006*[#  24]+0.006*[#  96]+0.005*[#  55]
          +0.005*[#  82]+0.005*[#  79]+0.005*[# 115]+0.004*[#  15]+0.004*[#  42]
          +0.004*[#  34]+0.003*[# 106]+0.003*[#  73]+0.003*[# 109]+0.002*[#  19]
          +0.002*[#  59]+0.002*[#  86]+0.002*[#  91]+0.001*[#  63]+0.001*[#  90]
          
    |psi|^2 = 0.998
==== e(  16) =    -8.50937 eV ==== 
     psi = 0.058*[# 108]+0.058*[#  36]+0.057*[#  63]+0.057*[#  90]+0.056*[#  78]
          +0.056*[# 114]+0.052*[#  97]+0.052*[#  25]+0.042*[#  95]+0.042*[#  23]
          +0.029*[#  15]+0.029*[#  42]+0.026*[#  59]+0.026*[#  86]+0.024*[#  17]
          +0.024*[#  44]+0.023*[#  18]+0.023*[#  45]+0.022*[#  34]+0.022*[# 106]
          +0.022*[#  35]+0.022*[# 107]+0.018*[#  60]+0.018*[#  87]+0.017*[#  77]
          +0.018*[# 113]+0.010*[#   6]+0.010*[#  51]+0.005*[#   1]+0.005*[#  46]
          +0.005*[#  33]+0.005*[# 105]+0.004*[#  32]+0.004*[# 104]+0.003*[#  26]
          +0.003*[#  98]+0.003*[#   5]+0.003*[#  27]+0.003*[#  50]+0.003*[#  99]
          +0.003*[#   9]+0.003*[#  54]+0.003*[#  79]+0.003*[# 115]+0.002*[#  16]
          +0.002*[#  43]+0.002*[#  62]+0.002*[#  73]+0.002*[# 109]+0.002*[#  10]
          +0.002*[#  37]+0.002*[#  89]+0.002*[#  14]+0.002*[#  41]+0.002*[#  61]
          +0.002*[#  88]
    |psi|^2 = 0.999
==== e(  17) =    -8.43268 eV ==== 
     psi = 0.030*[#  98]+0.030*[#  26]+0.029*[#   1]+0.029*[#  10]+0.029*[#  19]
          +0.029*[#  28]+0.029*[#  46]+0.029*[#  55]+0.029*[#  37]+0.029*[#  73]
          +0.029*[#  82]+0.029*[#  91]+0.029*[# 100]+0.029*[# 109]+0.029*[# 116]
          +0.028*[#  80]+0.026*[#   9]+0.026*[#  54]+0.023*[#  15]+0.023*[#  42]
          +0.021*[#  34]+0.021*[# 106]+0.019*[#  61]+0.019*[#  88]+0.018*[#  32]
          +0.018*[# 104]+0.017*[#  60]+0.017*[#  87]+0.014*[#  14]+0.014*[#  41]
          +0.013*[#  63]+0.013*[#  90]+0.013*[#  77]+0.013*[# 113]+0.011*[#  23]
          +0.011*[#  95]+0.010*[#   6]+0.010*[#  51]+0.010*[#   7]+0.010*[#  52]
          +0.009*[#  16]+0.009*[#  43]+0.008*[# 117]+0.008*[#  33]+0.008*[#  81]
          +0.008*[# 105]+0.007*[#  27]+0.007*[#  99]+0.004*[#  21]+0.004*[#  76]
          +0.004*[#  93]+0.004*[# 112]+0.003*[#   5]+0.003*[#  29]+0.003*[# 101]
          +0.003*[#  18]+0.003*[#  45]+0.003*[#  50]+0.003*[#  11]+0.003*[#  38]
          +0.002*[#  36]+0.002*[# 108]+0.002*[#   3]+0.002*[#   4]+0.002*[#  48]
          +0.002*[#  49]+0.002*[#  56]+0.002*[#  83]+0.001*[#  24]+0.001*[#  58]
          +0.001*[#  85]+0.001*[#  96]+0.001*[#  57]+0.001*[#  84]+0.001*[#  12]
          +0.001*[#  39]+0.001*[#  64]
    |psi|^2 = 0.998
==== e(  18) =    -8.34662 eV ==== 
     psi = 0.076*[#  77]+0.076*[# 113]+0.057*[#  52]+0.057*[#   7]+0.042*[#  51]
          +0.042*[#   6]+0.041*[#  88]+0.041*[#  61]+0.029*[#  87]+0.029*[#  60]
          +0.029*[#  80]+0.029*[# 116]+0.028*[#  89]+0.027*[#  62]+0.024*[#  33]
          +0.024*[# 105]+0.017*[# 106]+0.017*[#  34]+0.017*[#  18]+0.017*[#  26]
          +0.017*[#  45]+0.017*[#  27]+0.017*[#  98]+0.017*[#  99]+0.012*[#  59]
          +0.012*[#  86]+0.012*[#  78]+0.012*[# 114]+0.012*[#   5]+0.012*[#  50]
          +0.011*[#  15]+0.011*[#  23]+0.011*[#  42]+0.010*[#   8]+0.011*[#  53]
          +0.011*[#  95]+0.009*[# 108]+0.008*[#  36]+0.008*[#  16]+0.008*[#  43]
          +0.005*[#  17]+0.005*[#  44]+0.004*[#  32]+0.004*[# 104]+0.003*[#   9]
          +0.003*[#  54]+0.002*[# 107]+0.001*[#  22]+0.002*[#  35]+0.001*[#  94]
          +0.001*[#  13]+0.001*[#  40]+0.001*[#  31]+0.001*[# 103]
    |psi|^2 = 0.998
==== e(  19) =    -8.34622 eV ==== 
     psi = 0.067*[#  25]+0.067*[#  97]+0.060*[#  45]+0.059*[#  18]+0.053*[#  50]
          +0.053*[#   5]+0.043*[#  43]+0.043*[#  16]+0.038*[#  23]+0.038*[#  95]
          +0.025*[#  54]+0.025*[#   9]+0.025*[#  81]+0.025*[# 117]+0.021*[#  59]
          +0.021*[#  86]+0.020*[#  35]+0.020*[# 107]+0.019*[#   6]+0.019*[#  51]
          +0.018*[#  44]+0.018*[#  17]+0.016*[#   8]+0.016*[#  53]+0.011*[#  36]
          +0.011*[#  77]+0.011*[#  87]+0.011*[#  60]+0.011*[# 108]+0.011*[# 113]
          +0.010*[#  32]+0.010*[# 104]+0.009*[#  79]+0.009*[# 115]+0.009*[#  61]
          +0.009*[#  88]+0.007*[#  26]+0.007*[#  98]+0.007*[#  78]+0.007*[# 114]
          +0.005*[#  33]+0.005*[# 105]+0.004*[#  27]+0.004*[#  99]+0.002*[#  15]
          +0.002*[#  42]+0.001*[#  30]+0.001*[#  34]+0.001*[# 102]+0.001*[# 106]
          +0.001*[#  57]
    |psi|^2 = 0.998
==== e(  20) =    -8.34600 eV ==== 
     psi = 0.083*[#  78]+0.082*[# 114]+0.068*[# 107]+0.068*[#  35]+0.049*[#  44]
          +0.049*[#  17]+0.035*[#  63]+0.035*[#  90]+0.035*[#  24]+0.035*[#  96]
          +0.029*[#  15]+0.029*[#  42]+0.021*[#  89]+0.021*[#  62]+0.020*[#  54]
          +0.019*[#   9]+0.019*[#  14]+0.019*[#  41]+0.018*[#  33]+0.018*[# 105]
          +0.017*[#  18]+0.017*[#  45]+0.015*[#   8]+0.015*[#  53]+0.015*[#  25]
          +0.015*[#  97]+0.013*[#   6]+0.013*[#  51]+0.010*[#  77]+0.010*[# 113]
          +0.008*[#  60]+0.008*[#  87]+0.007*[#  61]+0.007*[#  88]+0.006*[#  32]
          +0.006*[# 104]+0.005*[#   7]+0.005*[#  52]+0.004*[#  23]+0.004*[#  36]
          +0.005*[# 108]+0.004*[#  95]+0.004*[#  80]+0.004*[# 116]+0.004*[#   5]
          +0.004*[#  50]+0.002*[#  79]+0.002*[# 115]+0.001*[#  20]+0.001*[#  92]
          +0.001*[#  16]+0.001*[#  43]+0.001*[#  59]+0.001*[#  86]
    |psi|^2 = 0.998
==== e(  21) =    -8.34593 eV ==== 
     psi = 0.082*[#  36]+0.081*[# 108]+0.045*[#  23]+0.045*[#  95]+0.043*[#  25]
          +0.043*[#  97]+0.037*[#  63]+0.037*[#  90]+0.029*[# 115]+0.028*[#  79]
          +0.028*[#  17]+0.028*[#  44]+0.024*[#  86]+0.024*[#  59]+0.024*[#  89]
          +0.024*[# 114]+0.024*[#  62]+0.024*[#  78]+0.021*[#  34]+0.021*[# 106]
          +0.016*[#  87]+0.016*[#  60]+0.016*[#  35]+0.016*[# 107]+0.014*[#  50]
          +0.014*[#   5]+0.014*[#  27]+0.013*[#  99]+0.012*[#  14]+0.012*[#  41]
          +0.012*[#   7]+0.012*[#  52]+0.009*[#  26]+0.009*[#  98]+0.008*[#   8]
          +0.008*[# 117]+0.008*[#  53]+0.008*[#  81]+0.007*[#  32]+0.007*[# 104]
          +0.006*[#  18]+0.006*[#  45]+0.005*[#  33]+0.005*[# 105]+0.004*[#  16]
          +0.004*[#  43]+0.003*[#  61]+0.003*[#  88]+0.002*[#  24]+0.002*[#  96]
          +0.001*[#  77]+0.001*[# 113]
    |psi|^2 = 0.998
==== e(  22) =    -8.12791 eV ==== 
     psi = 0.064*[#  70]+0.057*[#  25]+0.057*[#  97]+0.049*[#  35]+0.049*[# 107]
          +0.038*[#   9]+0.037*[#  54]+0.034*[#   6]+0.033*[#  51]+0.030*[# 115]
          +0.030*[#  79]+0.025*[#  88]+0.025*[#  61]+0.022*[#  78]+0.022*[# 114]
          +0.020*[#  17]+0.020*[#  44]+0.019*[#  62]+0.019*[#  89]+0.018*[#  59]
          +0.018*[#  86]+0.018*[#  87]+0.017*[#  60]+0.017*[#  43]+0.017*[#  45]
          +0.017*[#  18]+0.017*[#  16]+0.014*[#  41]+0.014*[#  14]+0.013*[#  90]
          +0.013*[#  63]+0.009*[#  34]+0.009*[#  50]+0.009*[#   5]+0.009*[# 106]
          +0.009*[# 108]+0.008*[#  36]+0.008*[#  98]+0.008*[#  26]+0.007*[#  68]
          +0.006*[#  99]+0.006*[#  27]+0.005*[#   8]+0.005*[#  53]+0.004*[#  55]
          +0.004*[#  82]+0.004*[#  24]+0.004*[#  77]+0.004*[#  96]+0.004*[# 113]
          +0.002*[#   1]+0.002*[#  71]+0.002*[#  46]+0.002*[#  69]+0.002*[#  81]
          +0.002*[#  74]+0.002*[# 110]+0.002*[# 117]+0.001*[#  10]+0.001*[#  37]
          
    |psi|^2 = 0.999
==== e(  23) =    -8.12773 eV ==== 
     psi = 0.061*[# 113]+0.060*[#  77]+0.056*[#  87]+0.056*[#  60]+0.053*[#  34]
          +0.053*[# 106]+0.042*[#  72]+0.038*[#  43]+0.038*[#  16]+0.032*[#  27]
          +0.032*[#  99]+0.030*[#  71]+0.029*[#  50]+0.029*[#   5]+0.024*[# 117]
          +0.023*[#  81]+0.020*[#  51]+0.020*[#   6]+0.018*[#   8]+0.018*[#  53]
          +0.017*[#  26]+0.017*[#  98]+0.016*[#  18]+0.016*[#  45]+0.015*[#  59]
          +0.015*[#  86]+0.014*[# 116]+0.014*[#  80]+0.010*[#  54]+0.010*[#   9]
          +0.008*[#  33]+0.008*[# 105]+0.006*[#  35]+0.007*[# 107]+0.005*[#  23]
          +0.005*[#  95]+0.005*[#  15]+0.005*[#  42]+0.004*[#  73]+0.004*[# 109]
          +0.004*[#  14]+0.004*[#  41]+0.003*[#  36]+0.003*[# 108]+0.003*[#  32]
          +0.003*[# 104]+0.003*[#  17]+0.003*[#  44]+0.002*[#   1]+0.002*[#  22]
          +0.002*[#  46]+0.002*[#  69]+0.002*[#  94]+0.002*[#  70]+0.001*[#   7]
          +0.001*[#  52]+0.001*[#  78]+0.001*[# 114]+0.001*[#  28]+0.001*[#  62]
          +0.001*[#  79]+0.001*[#  89]+0.001*[# 100]+0.001*[# 115]
    |psi|^2 = 0.999
==== e(  24) =    -8.12738 eV ==== 
     psi = 0.067*[#  98]+0.065*[#  26]+0.062*[#   7]+0.062*[#  52]+0.053*[#  63]
          +0.053*[#  90]+0.052*[#  14]+0.052*[#  41]+0.031*[#  68]+0.027*[#  78]
          +0.027*[# 114]+0.026*[#  69]+0.023*[#  44]+0.023*[#  17]+0.022*[#  32]
          +0.021*[# 104]+0.018*[# 113]+0.017*[#  77]+0.017*[#  81]+0.016*[# 117]
          +0.015*[# 105]+0.015*[#  33]+0.014*[#  99]+0.013*[#  27]+0.012*[#  71]
          +0.012*[#  34]+0.011*[#  25]+0.011*[#  97]+0.011*[# 106]+0.010*[#  96]
          +0.010*[# 108]+0.010*[#  24]+0.010*[#  36]+0.006*[#  88]+0.006*[#  61]
          +0.005*[#   6]+0.005*[#  51]+0.005*[#  80]+0.005*[#  62]+0.005*[#  91]
          +0.005*[# 116]+0.005*[#  19]+0.005*[#  89]+0.004*[#  72]+0.003*[#  16]
          +0.003*[#  43]+0.003*[#  59]+0.003*[#  86]+0.003*[#  70]+0.002*[#  10]
          +0.002*[#  37]+0.002*[#  79]+0.002*[# 102]+0.002*[# 115]+0.002*[#  30]
          +0.002*[#  42]+0.002*[#  15]+0.002*[#  95]+0.001*[#  23]
    |psi|^2 = 0.999
==== e(  25) =    -8.12676 eV ==== 
     psi = 0.080*[#  42]+0.079*[#  15]+0.071*[#  95]+0.071*[#  23]+0.049*[#  80]
          +0.049*[# 116]+0.042*[#  88]+0.041*[#  61]+0.030*[#  36]+0.030*[# 108]
          +0.030*[#  71]+0.029*[#  72]+0.026*[# 105]+0.026*[#  33]+0.024*[#  50]
          +0.024*[#   5]+0.021*[#   8]+0.021*[#  53]+0.018*[#  54]+0.018*[#   9]
          +0.017*[#  59]+0.017*[#  86]+0.013*[#  90]+0.013*[#  63]+0.012*[#  81]
          +0.012*[# 117]+0.010*[#  68]+0.009*[#  35]+0.009*[# 107]+0.008*[#  16]
          +0.008*[#  43]+0.007*[#  69]+0.007*[#  27]+0.007*[#  99]+0.004*[#   7]
          +0.004*[#  52]+0.003*[#  10]+0.003*[#  37]+0.002*[#  18]+0.002*[#  45]
          +0.002*[#  79]+0.002*[# 115]+0.002*[#  78]+0.002*[# 114]+0.002*[#  75]
          +0.002*[# 111]+0.002*[#  19]+0.002*[#  32]+0.002*[#  62]+0.002*[#  89]
          +0.002*[#  91]+0.002*[# 104]+0.002*[#  34]+0.002*[# 106]+0.001*[#   1]
          +0.001*[#  82]+0.001*[#  41]+0.001*[#  46]+0.001*[#  55]+0.001*[#  14]
          +0.001*[#  73]+0.001*[# 109]
    |psi|^2 = 0.999
==== e(  26) =    -8.12648 eV ==== 
     psi = 0.055*[#  32]+0.054*[# 104]+0.041*[#  24]+0.041*[#  96]+0.038*[#  69]
          +0.034*[#  62]+0.034*[#  89]+0.034*[#  45]+0.034*[#  18]+0.031*[#   9]
          +0.030*[#  54]+0.030*[# 116]+0.029*[#  80]+0.029*[#  68]+0.020*[#  33]
          +0.020*[# 105]+0.020*[# 115]+0.019*[#  79]+0.019*[#  17]+0.019*[#  44]
          +0.017*[#  36]+0.017*[# 108]+0.017*[#  78]+0.017*[# 114]+0.016*[#   6]
          +0.016*[#  51]+0.015*[#  88]+0.014*[#  61]+0.013*[# 117]+0.013*[#  81]
          +0.012*[#   8]+0.012*[#  53]+0.011*[# 106]+0.011*[#  34]+0.010*[#  87]
          +0.009*[#  60]+0.009*[#   7]+0.009*[#  52]+0.008*[#  98]+0.008*[#  26]
          +0.007*[#  70]+0.007*[#  59]+0.007*[#  86]+0.006*[#  43]+0.006*[#  16]
          +0.006*[#  27]+0.005*[#  99]+0.005*[#  28]+0.005*[# 100]+0.005*[#  50]
          +0.005*[#   5]+0.004*[#  23]+0.004*[#  95]+0.004*[#  15]+0.004*[#  42]
          +0.003*[#  14]+0.003*[#  41]+0.002*[#  20]+0.002*[#  73]+0.002*[#  92]
          +0.002*[# 109]+0.001*[#  71]+0.001*[#  58]+0.001*[#  85]+0.001*[#  63]
          
    |psi|^2 = 0.999
==== e(  27) =    -8.07347 eV ==== 
     psi = 0.090*[#  54]+0.089*[#   9]+0.073*[#  80]+0.072*[# 116]+0.042*[#  63]
          +0.041*[#  61]+0.042*[#  90]+0.041*[#  88]+0.029*[#  60]+0.028*[#  87]
          +0.026*[#  52]+0.026*[#   7]+0.026*[#  26]+0.026*[#  98]+0.022*[#  77]
          +0.022*[# 113]+0.021*[#   6]+0.021*[#  51]+0.018*[# 106]+0.017*[#  34]
          +0.017*[#   5]+0.016*[#  50]+0.012*[#   1]+0.012*[#  46]+0.008*[#  55]
          +0.008*[#  82]+0.007*[#  16]+0.007*[#  43]+0.007*[#  73]+0.007*[# 109]
          +0.007*[#  22]+0.007*[#  94]+0.005*[#  13]+0.005*[#  40]+0.005*[#  23]
          +0.005*[#  95]+0.005*[# 107]+0.005*[#  35]+0.004*[#  75]+0.004*[# 111]
          +0.004*[#  44]+0.004*[#  17]+0.004*[#  31]+0.004*[# 103]+0.003*[#  56]
          +0.003*[#  83]+0.003*[#  15]+0.003*[#  42]+0.003*[#  30]+0.003*[# 102]
          +0.003*[#  99]+0.002*[#  27]+0.002*[#  67]+0.002*[#  81]+0.002*[#  12]
          +0.002*[#  39]+0.002*[# 117]+0.002*[#   2]+0.002*[#  47]+0.002*[#  19]
          +0.002*[#  91]+0.001*[#  62]+0.001*[#  89]
    |psi|^2 = 0.999
==== e(  28) =    -8.07291 eV ==== 
     psi = 0.082*[#  15]+0.081*[#  42]+0.059*[#  26]+0.058*[#  98]+0.033*[#  16]
          +0.033*[#  43]+0.031*[# 117]+0.031*[#  81]+0.031*[# 116]+0.031*[#  80]
          +0.029*[#  23]+0.029*[#  95]+0.028*[#  14]+0.027*[#  41]+0.024*[#  27]
          +0.024*[#  99]+0.018*[#  77]+0.018*[# 113]+0.017*[#  51]+0.016*[#   6]
          +0.015*[#  18]+0.014*[#  45]+0.013*[#  88]+0.012*[#  61]+0.012*[#  10]
          +0.012*[#  37]+0.010*[#  54]+0.010*[#   9]+0.010*[#  32]+0.010*[# 104]
          +0.009*[#   8]+0.009*[#  53]+0.008*[#  19]+0.008*[#  91]+0.007*[#  89]
          +0.006*[#  79]+0.006*[#  62]+0.006*[#  73]+0.006*[# 109]+0.006*[# 115]
          +0.006*[#  57]+0.006*[#  84]+0.005*[#   7]+0.005*[#   4]+0.005*[#  49]
          +0.005*[#  52]+0.004*[#  30]+0.004*[#  86]+0.004*[# 102]+0.004*[#  59]
          +0.003*[#  17]+0.003*[#  44]+0.003*[#  20]+0.003*[#  92]+0.003*[#  33]
          +0.003*[#  36]+0.003*[# 105]+0.002*[# 108]+0.002*[#   1]+0.002*[#  11]
          +0.002*[#  38]+0.002*[#  46]+0.002*[#  31]+0.002*[#  66]+0.002*[#  74]
          +0.002*[#  75]+0.002*[# 103]+0.002*[# 111]+0.002*[# 110]+0.002*[#  29]
          +0.002*[# 101]+0.001*[#  76]+0.001*[# 112]
    |psi|^2 = 0.999
==== e(  29) =    -8.07265 eV ==== 
     psi = 0.068*[# 104]+0.067*[#  32]+0.066*[# 106]+0.066*[#  34]+0.038*[#  60]
          +0.038*[#  87]+0.037*[#  33]+0.037*[# 105]+0.034*[#  41]+0.033*[#  14]
          +0.032*[#  26]+0.031*[#  98]+0.023*[#  61]+0.023*[#  88]+0.018*[#  24]
          +0.018*[#  96]+0.014*[#  28]+0.014*[# 100]+0.012*[#  52]+0.012*[#   7]
          +0.012*[#  90]+0.012*[#  27]+0.011*[#  23]+0.011*[#  63]+0.011*[#  99]
          +0.011*[#  95]+0.010*[# 117]+0.010*[#  81]+0.009*[#  80]+0.009*[# 116]
          +0.008*[#  36]+0.008*[#  79]+0.008*[#  86]+0.008*[# 108]+0.008*[# 115]
          +0.008*[#  59]+0.007*[#  15]+0.007*[#  42]+0.007*[#  77]+0.006*[# 113]
          +0.006*[#  51]+0.006*[#   6]+0.006*[#  55]+0.006*[#  74]+0.006*[#  82]
          +0.006*[# 110]+0.005*[#  19]+0.005*[#  91]+0.004*[#  20]+0.004*[#  58]
          +0.004*[#  85]+0.004*[#  92]+0.004*[#   2]+0.004*[#  12]+0.004*[#  39]
          +0.004*[#  47]+0.003*[#   3]+0.003*[#   8]+0.003*[#  48]+0.003*[#  53]
          +0.003*[#  16]+0.003*[#  43]+0.002*[#  10]+0.002*[#  37]+0.002*[#  65]
          +0.002*[#   5]+0.002*[#  62]+0.002*[#  73]+0.002*[#  89]+0.002*[# 109]
          +0.001*[#  13]+0.001*[#  40]+0.002*[#  50]+0.001*[#   9]+0.001*[#  25]
          +0.001*[#  54]+0.001*[#  11]+0.001*[#  38]+0.001*[#  97]
    |psi|^2 = 0.999
==== e(  30) =    -7.77889 eV ==== 
     psi = 0.046*[# 107]+0.046*[#  35]+0.042*[#  44]+0.041*[#  17]+0.041*[#  77]
          +0.041*[# 113]+0.036*[#  53]+0.036*[#   8]+0.033*[#  89]+0.032*[#  62]
          +0.031*[#  71]+0.030*[# 106]+0.030*[#  34]+0.028*[#  99]+0.028*[#  27]
          +0.027*[#  97]+0.026*[#  25]+0.021*[#  63]+0.021*[# 108]+0.021*[#  90]
          +0.020*[#  36]+0.018*[#  70]+0.016*[#  79]+0.016*[# 115]+0.014*[#  72]
          +0.014*[#  61]+0.013*[#  80]+0.013*[#  88]+0.013*[# 104]+0.013*[#  32]
          +0.013*[# 116]+0.013*[#  68]+0.011*[#  18]+0.011*[#  45]+0.011*[#  59]
          +0.011*[#  86]+0.010*[#   7]+0.010*[#  52]+0.008*[#   5]+0.008*[#  50]
          +0.007*[#  51]+0.007*[#  81]+0.007*[#   6]+0.007*[# 117]+0.007*[#  26]
          +0.007*[#  16]+0.007*[#  43]+0.007*[#  98]+0.004*[#  95]+0.004*[#  14]
          +0.004*[#  23]+0.004*[#  41]+0.004*[#  15]+0.003*[#  42]
    |psi|^2 = 0.999
==== e(  31) =    -7.77879 eV ==== 
     psi = 0.060*[#   7]+0.058*[#  52]+0.055*[#  97]+0.053*[#  25]+0.047*[#  18]
          +0.046*[#  45]+0.043*[#  79]+0.043*[# 115]+0.040*[#  70]+0.034*[#  16]
          +0.034*[#  43]+0.030*[#  60]+0.030*[#  87]+0.023*[#  72]+0.022*[#   9]
          +0.021*[#  54]+0.020*[#  61]+0.019*[#  27]+0.019*[#  88]+0.019*[#  99]
          +0.018*[#  36]+0.018*[# 108]+0.014*[#  32]+0.014*[# 104]+0.013*[#  81]
          +0.013*[# 117]+0.013*[#  62]+0.013*[# 106]+0.012*[#  34]+0.012*[#  89]
          +0.011*[#  26]+0.011*[#  98]+0.010*[#  90]+0.010*[#  63]+0.008*[#  44]
          +0.007*[#  17]+0.006*[#  71]+0.006*[# 114]+0.006*[#  78]+0.005*[#  50]
          +0.005*[#  69]+0.005*[#   5]+0.005*[#   6]+0.005*[# 107]+0.005*[#   8]
          +0.005*[#  35]+0.005*[#  53]+0.005*[#  51]+0.004*[#  24]+0.004*[#  96]
          +0.002*[#  68]+0.001*[#  23]+0.001*[#  86]+0.001*[#  95]+0.001*[#  59]
          
    |psi|^2 = 0.999
==== e(  32) =    -7.77815 eV ==== 
     psi = 0.047*[#  50]+0.046*[#   5]+0.045*[#  86]+0.044*[#  59]+0.038*[#  33]
          +0.037*[# 105]+0.037*[#  78]+0.037*[# 114]+0.032*[#  16]+0.031*[#  43]
          +0.030*[#  68]+0.028*[#  25]+0.028*[#  97]+0.027*[#  77]+0.026*[# 113]
          +0.023*[#  69]+0.023*[#  90]+0.022*[#  63]+0.021*[#  24]+0.021*[#  96]
          +0.020*[#  23]+0.020*[#  95]+0.018*[# 115]+0.018*[#  79]+0.017*[#  70]
          +0.016*[#  14]+0.015*[#  41]+0.014*[#  87]+0.014*[# 104]+0.014*[#  32]
          +0.014*[#  60]+0.011*[#  51]+0.011*[#   6]+0.011*[#  80]+0.010*[# 116]
          +0.010*[#  15]+0.010*[#  42]+0.009*[#  88]+0.009*[#  61]+0.008*[#  45]
          +0.008*[#  18]+0.008*[#  36]+0.007*[# 108]+0.006*[#  34]+0.006*[#  26]
          +0.006*[# 106]+0.006*[#   7]+0.006*[#  98]+0.005*[#  52]+0.005*[#  72]
          +0.004*[#  17]+0.004*[#  44]+0.001*[#  62]+0.001*[#  89]+0.001*[#  53]
          +0.001*[#   8]
    |psi|^2 = 0.999
==== e(  33) =    -7.77758 eV ==== 
     psi = 0.064*[# 114]+0.061*[#  78]+0.046*[#   6]+0.046*[#  24]+0.045*[#  96]
          +0.045*[#  51]+0.044*[#  69]+0.039*[#  41]+0.039*[#  14]+0.036*[#  42]
          +0.035*[#  15]+0.032*[#  23]+0.031*[#  95]+0.031*[#  50]+0.030*[#   5]
          +0.027*[#  33]+0.027*[# 105]+0.026*[#  68]+0.024*[#  86]+0.024*[#  59]
          +0.023*[#  60]+0.022*[#  87]+0.016*[#   9]+0.016*[#  54]+0.016*[# 113]
          +0.016*[#  77]+0.011*[#  61]+0.011*[#  88]+0.010*[#  36]+0.009*[# 108]
          +0.007*[#  44]+0.007*[#  17]+0.006*[#  26]+0.006*[#  98]+0.006*[#  32]
          +0.006*[# 104]+0.005*[#  34]+0.005*[# 106]+0.005*[#  53]+0.004*[#   8]
          +0.004*[#   7]+0.004*[# 107]+0.004*[#  35]+0.004*[#  52]+0.003*[#  71]
          +0.003*[#  72]+0.002*[#  62]+0.002*[#  89]+0.002*[#  80]+0.002*[# 116]
          +0.002*[#  27]+0.002*[#  99]
    |psi|^2 = 0.999
==== e(  34) =    -7.77719 eV ==== 
     psi = 0.048*[# 107]+0.048*[#  35]+0.045*[#  36]+0.045*[#  81]+0.045*[# 117]
          +0.045*[# 108]+0.043*[#  62]+0.042*[#  89]+0.040*[#  44]+0.039*[#  17]
          +0.036*[#  53]+0.036*[#   8]+0.035*[#  71]+0.031*[#  72]+0.031*[#  18]
          +0.030*[#  45]+0.029*[#  95]+0.029*[#  23]+0.022*[#  90]+0.022*[#  63]
          +0.020*[#  99]+0.020*[#  27]+0.016*[# 116]+0.016*[#  80]+0.013*[#   9]
          +0.012*[#  54]+0.012*[#  26]+0.011*[#  98]+0.011*[#   6]+0.010*[#  51]
          +0.011*[#  61]+0.010*[#  88]+0.008*[#  33]+0.008*[# 105]+0.007*[#  96]
          +0.006*[#  24]+0.005*[#  68]+0.005*[#  86]+0.005*[#  59]+0.005*[#  32]
          +0.005*[# 104]+0.004*[# 114]+0.004*[#  78]+0.003*[#  69]+0.002*[#  15]
          +0.002*[#  42]+0.001*[#  50]+0.001*[#  77]+0.001*[#   5]+0.001*[#  25]
          +0.001*[#  97]+0.001*[# 113]+0.001*[#  34]+0.001*[# 106]
    |psi|^2 = 0.999
==== e(  35) =    -7.71258 eV ==== 
     psi = 0.080*[#  35]+0.079*[# 107]+0.050*[# 108]+0.049*[#  36]+0.047*[#  63]
          +0.047*[#  90]+0.036*[#  60]+0.035*[#  87]+0.034*[#  17]+0.033*[#  44]
          +0.033*[#   6]+0.033*[#  51]+0.028*[#  45]+0.028*[#  18]+0.025*[#  34]
          +0.025*[# 106]+0.020*[#   8]+0.020*[#  89]+0.020*[#  53]+0.020*[#  62]
          +0.017*[#  79]+0.017*[# 115]+0.017*[# 113]+0.016*[#  77]+0.015*[#  78]
          +0.015*[# 114]+0.015*[#  97]+0.014*[#  25]+0.014*[#   5]+0.013*[#  50]
          +0.013*[#  59]+0.013*[#  86]+0.009*[#  24]+0.009*[#  96]+0.008*[#  27]
          +0.008*[#  99]+0.007*[#   7]+0.007*[#  52]+0.006*[# 116]+0.005*[#  80]
          +0.005*[#  26]+0.005*[#  98]+0.003*[#  32]+0.003*[# 104]
    |psi|^2 = 0.999
==== e(  36) =    -7.71227 eV ==== 
     psi = 0.089*[#  25]+0.088*[#  97]+0.066*[#  43]+0.065*[#  16]+0.061*[#  52]
          +0.060*[#   7]+0.052*[#  45]+0.051*[#  18]+0.051*[# 113]+0.050*[#  77]
          +0.024*[#  54]+0.024*[#   9]+0.021*[#   5]+0.020*[#  50]+0.017*[#  78]
          +0.017*[# 114]+0.016*[# 116]+0.016*[#  80]+0.014*[# 108]+0.013*[#  36]
          +0.012*[#  59]+0.012*[#  86]+0.010*[#  27]+0.009*[#  99]+0.009*[# 115]
          +0.009*[#  79]+0.008*[#  32]+0.008*[# 104]+0.008*[#  62]+0.008*[#  89]
          +0.006*[#   8]+0.006*[#  53]+0.006*[#   6]+0.006*[#  51]+0.005*[#  41]
          +0.005*[#  14]+0.005*[#  17]+0.005*[#  44]+0.004*[#  88]+0.004*[#  61]
          +0.004*[#  23]+0.004*[#  95]+0.003*[#  33]+0.003*[# 105]+0.003*[#  60]
          +0.003*[#  87]+0.002*[# 117]+0.002*[#  24]+0.002*[#  63]+0.002*[#  81]
          +0.002*[#  90]+0.002*[#  96]+0.001*[#  15]+0.001*[#  42]
    |psi|^2 = 0.999
==== e(  37) =    -7.71184 eV ==== 
     psi = 0.065*[#  78]+0.063*[# 114]+0.061*[#  25]+0.060*[#  97]+0.059*[# 113]
          +0.059*[#  77]+0.051*[#  88]+0.050*[#  61]+0.041*[#  87]+0.039*[#  60]
          +0.027*[#  51]+0.025*[#   6]+0.023*[#  23]+0.023*[#  34]+0.023*[#  89]
          +0.023*[#  95]+0.023*[# 106]+0.023*[#  62]+0.017*[#  27]+0.016*[#  99]
          +0.015*[#  52]+0.014*[#   7]+0.013*[#  32]+0.013*[#  80]+0.013*[# 104]
          +0.013*[# 116]+0.012*[#  14]+0.012*[#  15]+0.012*[#  41]+0.012*[#  42]
          +0.010*[#  18]+0.010*[#  45]+0.008*[# 117]+0.008*[#  81]+0.007*[#   8]
          +0.007*[#  53]+0.006*[#   5]+0.006*[#  50]+0.005*[#  59]+0.005*[#  86]
          +0.003*[#  54]+0.003*[#   9]+0.003*[#  17]+0.003*[#  44]+0.002*[#  36]
          +0.002*[# 105]+0.002*[#  33]+0.002*[# 108]+0.002*[#  26]+0.002*[#  98]
          
    |psi|^2 = 0.999
==== e(  38) =    -7.71117 eV ==== 
     psi = 0.091*[#  95]+0.090*[#  23]+0.064*[#   5]+0.063*[#  50]+0.049*[#  17]
          +0.048*[#  44]+0.041*[#  59]+0.041*[#  86]+0.031*[#  98]+0.031*[#  15]
          +0.031*[#  26]+0.031*[#  42]+0.024*[# 117]+0.024*[#  81]+0.024*[#   6]
          +0.024*[#  51]+0.022*[#  63]+0.022*[#  90]+0.022*[#  33]+0.022*[# 105]
          +0.021*[#   8]+0.021*[#  53]+0.020*[#   9]+0.020*[#  54]+0.016*[#  14]
          +0.016*[#  41]+0.010*[#  61]+0.010*[#  88]+0.007*[#  80]+0.006*[# 116]
          +0.005*[#  52]+0.005*[#   7]+0.004*[#  45]+0.004*[#  60]+0.004*[#  18]
          +0.004*[#  87]+0.003*[# 104]+0.003*[#  32]+0.003*[#  36]+0.003*[# 108]
          +0.003*[#  25]+0.002*[#  97]+0.002*[#  79]+0.002*[# 115]+0.002*[#  35]
          +0.002*[# 107]+0.001*[#  24]
    |psi|^2 = 0.999
==== e(  39) =    -7.71057 eV ==== 
     psi = 0.070*[# 108]+0.069*[#  36]+0.069*[#  78]+0.068*[# 114]+0.055*[#  35]
          +0.055*[# 107]+0.040*[#  89]+0.040*[#  62]+0.040*[#  17]+0.039*[#  44]
          +0.037*[#  45]+0.037*[#  18]+0.036*[# 105]+0.035*[#  33]+0.029*[#  96]
          +0.028*[#  24]+0.022*[#  63]+0.022*[#  90]+0.016*[#  54]+0.016*[#   9]
          +0.014*[#  79]+0.013*[# 115]+0.012*[#  61]+0.012*[#  88]+0.011*[#  23]
          +0.010*[#  95]+0.009*[#  15]+0.009*[#  52]+0.009*[#   7]+0.009*[#  42]
          +0.007*[#  51]+0.007*[#   6]+0.006*[#  26]+0.005*[#  98]+0.004*[# 113]
          +0.003*[#  77]+0.003*[#  27]+0.003*[#  99]+0.003*[#   8]+0.003*[#  53]
          +0.002*[#  50]+0.002*[#   5]+0.002*[#  32]+0.002*[#  41]+0.002*[#  14]
          +0.002*[#  81]+0.002*[# 104]+0.002*[# 117]+0.001*[#  16]+0.001*[#  43]
          
    |psi|^2 = 0.999
==== e(  40) =    -7.32375 eV ==== 
     psi = 0.089*[#  80]+0.089*[# 116]+0.065*[#  15]+0.064*[#  42]+0.062*[#  34]
          +0.062*[# 106]+0.055*[#  77]+0.055*[# 113]+0.043*[#  32]+0.043*[# 104]
          +0.039*[#  14]+0.039*[#  41]+0.036*[#  16]+0.035*[#  43]+0.027*[#  81]
          +0.026*[# 117]+0.024*[#  33]+0.024*[# 105]+0.013*[#   9]+0.013*[#  54]
          +0.009*[#   7]+0.008*[#  52]+0.007*[#  61]+0.007*[#  88]+0.007*[#  23]
          +0.007*[#  95]+0.005*[#  18]+0.005*[#  45]+0.005*[#  17]+0.005*[#  44]
          +0.004*[#  63]+0.004*[#  90]+0.002*[#  36]+0.002*[# 108]+0.001*[#  62]
          +0.001*[#  79]+0.001*[#  89]+0.001*[# 115]+0.001*[#  73]+0.001*[# 109]
          
    |psi|^2 = 0.999
==== e(  41) =    -7.32372 eV ==== 
     psi = 0.113*[#   9]+0.113*[#  54]+0.051*[#   6]+0.051*[#  51]+0.046*[#  98]
          +0.046*[#  26]+0.045*[# 104]+0.045*[#  32]+0.040*[#   7]+0.040*[#  52]
          +0.037*[#  34]+0.037*[# 106]+0.028*[#  61]+0.028*[#  88]+0.019*[#  60]
          +0.019*[#  87]+0.016*[#  33]+0.016*[# 105]+0.015*[#   5]+0.015*[#  23]
          +0.015*[#  50]+0.015*[#  95]+0.013*[# 116]+0.013*[#  80]+0.012*[#  27]
          +0.012*[#  99]+0.011*[#  36]+0.011*[# 108]+0.006*[#  18]+0.006*[#  45]
          +0.005*[#  63]+0.005*[#  90]+0.005*[#  14]+0.005*[#  41]+0.004*[#  81]
          +0.004*[# 117]+0.003*[#  24]+0.003*[#  35]+0.003*[#  96]+0.003*[# 107]
          +0.002*[#  25]+0.002*[#  78]+0.002*[#  97]+0.002*[# 114]+0.001*[#   1]
          +0.001*[#  15]+0.001*[#  17]+0.001*[#  42]+0.001*[#  44]+0.001*[#  46]
          
    |psi|^2 = 0.999
==== e(  42) =    -7.32367 eV ==== 
     psi = 0.098*[#  26]+0.098*[#  98]+0.062*[#  60]+0.062*[#  87]+0.060*[#  61]
          +0.059*[#  88]+0.055*[#  63]+0.055*[#  90]+0.046*[#  15]+0.046*[#  42]
          +0.038*[#  23]+0.038*[#  95]+0.036*[# 116]+0.036*[#  80]+0.022*[#  14]
          +0.022*[#  41]+0.021*[#  27]+0.021*[#  99]+0.010*[#  81]+0.010*[# 117]
          +0.010*[#  16]+0.010*[#  43]+0.007*[#  18]+0.007*[#  45]+0.007*[#  77]
          +0.007*[# 113]+0.004*[#  59]+0.004*[#  86]+0.003*[#  24]+0.003*[#  96]
          +0.003*[#   5]+0.003*[#  50]+0.003*[#  25]+0.003*[#  97]+0.003*[#  78]
          +0.003*[# 114]+0.003*[#   7]+0.003*[#  52]+0.002*[#  35]+0.002*[# 107]
          +0.001*[#  36]+0.001*[#  19]+0.001*[#  33]+0.001*[#  55]+0.001*[#  82]
          +0.001*[# 108]+0.001*[#  62]+0.001*[#  89]+0.001*[#  91]+0.001*[# 105]
          
    |psi|^2 = 0.999
==== e(  43) =    -7.25221 eV ==== 
     psi = 0.077*[#  79]+0.077*[# 115]+0.067*[#  59]+0.067*[#  86]+0.050*[#  27]
          +0.050*[#  99]+0.049*[#  16]+0.049*[#  43]+0.042*[#  96]+0.042*[#  24]
          +0.035*[#  35]+0.035*[# 107]+0.029*[#  53]+0.029*[#   8]+0.024*[#   5]
          +0.024*[#  50]+0.021*[#  32]+0.021*[# 104]+0.019*[#  15]+0.019*[#  42]
          +0.014*[#  88]+0.014*[#  61]+0.014*[#  90]+0.014*[#  63]+0.013*[#  26]
          +0.013*[#  98]+0.006*[#  36]+0.006*[# 108]+0.006*[#  77]+0.006*[# 113]
          +0.005*[#  60]+0.005*[#  80]+0.005*[#  87]+0.005*[# 116]+0.005*[#  78]
          +0.005*[# 114]+0.003*[#  23]+0.003*[#  33]+0.003*[#  95]+0.003*[# 105]
          +0.002*[#   9]+0.002*[#  54]+0.002*[#  34]+0.002*[# 106]+0.001*[#  18]
          +0.001*[#  45]+0.001*[#  74]+0.001*[# 110]
    |psi|^2 = 0.999
==== e(  44) =    -7.25195 eV ==== 
     psi = 0.069*[#  62]+0.069*[#  89]+0.051*[#   7]+0.051*[#  52]+0.043*[#  14]
          +0.043*[#  41]+0.038*[#  27]+0.038*[#  99]+0.035*[#  45]+0.035*[#  18]
          +0.033*[#  36]+0.033*[# 108]+0.030*[#  78]+0.030*[# 114]+0.029*[#  16]
          +0.029*[#  43]+0.023*[#  60]+0.023*[#  87]+0.022*[#  53]+0.022*[#   8]
          +0.021*[#  25]+0.021*[#  97]+0.014*[#  34]+0.014*[# 106]+0.012*[#  17]
          +0.012*[#  44]+0.010*[#  26]+0.010*[#  98]+0.010*[#   5]+0.010*[#  50]
          +0.009*[#  79]+0.009*[# 115]+0.008*[#  33]+0.008*[# 105]+0.007*[#  35]
          +0.007*[# 107]+0.006*[#  77]+0.007*[# 113]+0.006*[#   9]+0.006*[#  54]
          +0.006*[#  63]+0.006*[#  90]+0.005*[#  24]+0.005*[#  96]+0.004*[#  61]
          +0.004*[#  88]+0.002*[#   6]+0.002*[#  51]+0.001*[#  13]+0.001*[#  40]
          +0.001*[#  81]+0.001*[# 117]
    |psi|^2 = 0.999
==== e(  45) =    -7.25170 eV ==== 
     psi = 0.056*[#  32]+0.056*[# 104]+0.052*[#   6]+0.052*[#  51]+0.042*[#  96]
          +0.042*[#  24]+0.034*[#  79]+0.034*[# 115]+0.032*[#   5]+0.031*[#  50]
          +0.021*[#  62]+0.021*[#  89]+0.021*[#  53]+0.020*[#   8]+0.020*[#  81]
          +0.020*[# 117]+0.018*[#  63]+0.018*[#  90]+0.018*[#  61]+0.018*[#  88]
          +0.016*[#  54]+0.016*[#   9]+0.015*[#  15]+0.015*[#  42]+0.015*[#  80]
          +0.015*[#  34]+0.015*[# 106]+0.015*[# 116]+0.015*[#  33]+0.015*[# 105]
          +0.014*[#  25]+0.014*[#  97]+0.014*[#  18]+0.014*[#  45]+0.014*[#  95]
          +0.013*[#  23]+0.011*[#  27]+0.011*[#  99]+0.011*[#  36]+0.011*[# 108]
          +0.011*[#  14]+0.010*[#  41]+0.009*[#  77]+0.009*[# 113]+0.005*[#   7]
          +0.005*[#  26]+0.005*[#  52]+0.005*[#  98]+0.004*[#  35]+0.004*[# 107]
          +0.003*[#  59]+0.003*[#  78]+0.002*[#  86]+0.002*[# 114]+0.001*[#   2]
          +0.001*[#  47]
    |psi|^2 = 0.999
==== e(  46) =    -7.25146 eV ==== 
     psi = 0.083*[# 117]+0.082*[#  81]+0.060*[# 105]+0.060*[#  33]+0.049*[#  17]
          +0.049*[#  44]+0.044*[#   8]+0.045*[#  53]+0.035*[#  14]+0.035*[#  41]
          +0.035*[#  59]+0.035*[#  86]+0.034*[#  96]+0.034*[#  24]+0.025*[#  34]
          +0.025*[# 106]+0.017*[#  87]+0.016*[#  60]+0.016*[#  80]+0.016*[# 116]
          +0.012*[#  15]+0.012*[#  42]+0.011*[#  35]+0.011*[# 107]+0.010*[#  63]
          +0.010*[#  90]+0.010*[#  27]+0.010*[#  23]+0.010*[#  95]+0.010*[#  99]
          +0.006*[#  79]+0.006*[# 115]+0.006*[#   5]+0.005*[#  50]+0.005*[#  61]
          +0.005*[#  88]+0.005*[#  54]+0.004*[#   9]+0.003*[#  18]+0.003*[#  45]
          +0.003*[#  26]+0.003*[#  77]+0.003*[# 113]+0.003*[#  98]+0.003*[#   6]
          +0.003*[#  51]+0.002*[#  25]+0.002*[#  97]+0.002*[#  62]+0.002*[#  89]
          +0.002*[#  36]+0.002*[# 108]+0.002*[#  16]+0.002*[#  43]+0.001*[#  75]
          +0.001*[# 111]+0.001*[#  12]+0.001*[#  32]+0.001*[#  39]+0.001*[# 104]
          
    |psi|^2 = 0.999
==== e(  47) =    -7.08357 eV ==== 
     psi = 0.083*[#  59]+0.083*[#  86]+0.061*[#  16]+0.061*[#  43]+0.050*[#  79]
          +0.050*[# 115]+0.048*[#   5]+0.048*[#  50]+0.039*[#  41]+0.039*[#  14]
          +0.032*[#  62]+0.032*[#  89]+0.030*[# 106]+0.030*[#  34]+0.023*[#  81]
          +0.023*[# 117]+0.021*[#  35]+0.021*[# 107]+0.016*[#  36]+0.016*[# 108]
          +0.014*[#  63]+0.014*[#  90]+0.014*[#  32]+0.014*[# 104]+0.014*[#   7]
          +0.014*[#  52]+0.012*[#   8]+0.012*[#  53]+0.008*[#  80]+0.008*[# 116]
          +0.006*[#  18]+0.006*[#  45]+0.005*[#  78]+0.005*[# 114]+0.005*[#  60]
          +0.005*[#  87]+0.004*[#  33]+0.004*[# 105]+0.004*[#  23]+0.004*[#  95]
          +0.002*[#  17]+0.002*[#  24]+0.002*[#  44]+0.002*[#  96]+0.001*[#  25]
          +0.001*[#  97]
    |psi|^2 = 1.000
==== e(  48) =    -7.08349 eV ==== 
     psi = 0.072*[#   8]+0.072*[#  53]+0.071*[#  24]+0.071*[#  96]+0.043*[# 115]
          +0.043*[#  79]+0.026*[#   7]+0.026*[#  52]+0.025*[#  27]+0.025*[#   6]
          +0.025*[#  18]+0.025*[#  51]+0.025*[#  99]+0.025*[#  45]+0.024*[#  32]
          +0.024*[# 104]+0.023*[#  26]+0.023*[#  98]+0.020*[#  36]+0.020*[# 108]
          +0.018*[#  33]+0.018*[# 105]+0.017*[#  35]+0.017*[# 107]+0.016*[#  25]
          +0.016*[#  97]+0.015*[#  78]+0.015*[# 114]+0.011*[#  80]+0.011*[# 116]
          +0.010*[#  16]+0.010*[#  43]+0.009*[#  62]+0.009*[#  89]+0.008*[#  77]
          +0.008*[# 113]+0.008*[#  59]+0.008*[#  86]+0.006*[#  60]+0.006*[#  87]
          +0.006*[#  15]+0.006*[#  42]+0.005*[#  14]+0.005*[#  41]+0.004*[#  17]
          +0.004*[#  44]+0.003*[#  63]+0.003*[#  90]+0.002*[#  81]+0.002*[# 117]
          +0.001*[#   5]+0.001*[#  50]+0.001*[#  61]+0.001*[#  88]
    |psi|^2 = 1.000
==== e(  49) =    -7.08335 eV ==== 
     psi = 0.107*[#  99]+0.107*[#  27]+0.084*[# 117]+0.084*[#  81]+0.034*[#   6]
          +0.034*[#  51]+0.032*[#  63]+0.032*[#  90]+0.032*[#   9]+0.032*[#  54]
          +0.030*[#  24]+0.030*[#  96]+0.029*[#  17]+0.029*[#  44]+0.024*[#   7]
          +0.024*[#  52]+0.019*[#  33]+0.019*[# 105]+0.016*[# 107]+0.016*[#  35]
          +0.015*[#  61]+0.015*[#  88]+0.012*[#  16]+0.012*[#  43]+0.011*[#  80]
          +0.011*[# 116]+0.010*[#  26]+0.010*[#  98]+0.009*[#   5]+0.009*[#  50]
          +0.006*[#  77]+0.006*[# 113]+0.006*[#  34]+0.006*[# 106]+0.006*[#  78]
          +0.006*[# 114]+0.004*[#  14]+0.004*[#  41]+0.002*[#   8]+0.002*[#  53]
          +0.002*[#  62]+0.002*[#  89]+0.001*[#  18]+0.001*[#  22]+0.001*[#  45]
          +0.001*[#  23]+0.001*[#  94]+0.001*[#  95]
    |psi|^2 = 1.000
==== e(  50) =    -7.08329 eV ==== 
     psi = 0.060*[# 115]+0.060*[#  79]+0.056*[#  14]+0.056*[#  41]+0.048*[#  32]
          +0.048*[# 104]+0.044*[#  24]+0.044*[#  96]+0.034*[#  34]+0.034*[#  15]
          +0.034*[# 106]+0.033*[#  42]+0.033*[#  60]+0.033*[#  87]+0.025*[#  81]
          +0.026*[# 117]+0.024*[#  23]+0.024*[#  95]+0.022*[#  36]+0.022*[# 108]
          +0.021*[#  18]+0.021*[#  45]+0.020*[#  61]+0.020*[#  88]+0.016*[#  80]
          +0.016*[# 116]+0.012*[#   8]+0.012*[#  53]+0.012*[#  16]+0.012*[#  43]
          +0.010*[#  77]+0.010*[# 113]+0.007*[#  17]+0.007*[#  44]+0.004*[#  26]
          +0.004*[#  98]+0.004*[#  78]+0.004*[# 114]+0.003*[#  25]+0.003*[#  97]
          +0.001*[#  33]+0.001*[# 105]+0.001*[#  63]+0.001*[#  90]+0.001*[#  27]
          +0.001*[#  99]+0.001*[#   9]+0.001*[#  54]
    |psi|^2 = 1.000
==== e(  51) =    -7.08326 eV ==== 
     psi = 0.072*[#  62]+0.072*[#  89]+0.067*[# 105]+0.066*[#  33]+0.052*[#   8]
          +0.052*[#  53]+0.043*[#  59]+0.043*[#  86]+0.032*[#  17]+0.032*[#  44]
          +0.030*[#   5]+0.030*[#  50]+0.020*[#  25]+0.020*[#  97]+0.019*[#  15]
          +0.019*[#  42]+0.017*[# 104]+0.016*[#  32]+0.015*[#  35]+0.015*[# 107]
          +0.014*[#  24]+0.014*[#  96]+0.013*[#  78]+0.013*[#  61]+0.013*[#  88]
          +0.013*[# 114]+0.011*[#  18]+0.011*[#  45]+0.011*[#  14]+0.011*[#  41]
          +0.011*[#  60]+0.011*[#  87]+0.010*[#  79]+0.010*[# 115]+0.008*[#   6]
          +0.008*[#  51]+0.008*[#  27]+0.008*[#  99]+0.008*[#  63]+0.008*[#  90]
          +0.006*[#  16]+0.006*[#  43]+0.005*[#   7]+0.005*[#  52]+0.003*[#  36]
          +0.003*[# 108]+0.003*[#  26]+0.003*[#  98]+0.002*[#  34]+0.002*[# 106]
          +0.001*[#   9]+0.001*[#  54]
    |psi|^2 = 1.000
==== e(  52) =    -7.04865 eV ==== 
     psi = 0.058*[#  18]+0.058*[#  45]+0.058*[#  23]+0.058*[#  95]+0.046*[#  36]
          +0.046*[# 108]+0.044*[# 105]+0.043*[#  33]+0.034*[#  89]+0.034*[#  62]
          +0.033*[#  35]+0.033*[# 107]+0.026*[#  61]+0.026*[#  88]+0.026*[#  26]
          +0.026*[#  98]+0.022*[#  25]+0.022*[#  97]+0.021*[#  77]+0.021*[# 113]
          +0.020*[#  63]+0.020*[#  90]+0.019*[#  15]+0.019*[#  42]+0.018*[# 117]
          +0.018*[#   8]+0.018*[#  53]+0.018*[#  81]+0.011*[#   7]+0.011*[#  52]
          +0.008*[#   5]+0.008*[#  50]+0.007*[#  78]+0.007*[# 114]+0.005*[#  17]
          +0.005*[#  44]+0.004*[#  34]+0.004*[# 106]+0.003*[#  75]+0.003*[# 111]
          +0.003*[#  14]+0.003*[#  41]+0.002*[#   6]+0.002*[#  51]+0.002*[#  24]
          +0.002*[#  96]+0.002*[#  13]+0.002*[#  40]+0.001*[#   2]+0.001*[#   4]
          +0.001*[#  47]+0.001*[#  49]
    |psi|^2 = 0.999
==== e(  53) =    -7.04834 eV ==== 
     psi = 0.091*[#  17]+0.091*[#  44]+0.052*[#  25]+0.052*[#  97]+0.040*[#  95]
          +0.040*[#  23]+0.036*[#   7]+0.036*[#  52]+0.032*[#  61]+0.032*[#  88]
          +0.025*[#  87]+0.024*[#  60]+0.024*[#  78]+0.024*[# 114]+0.020*[#  77]
          +0.020*[# 113]+0.020*[#  79]+0.020*[# 115]+0.019*[#  15]+0.019*[#  42]
          +0.019*[#  62]+0.019*[#  89]+0.016*[#  35]+0.016*[# 107]+0.013*[#  27]
          +0.013*[#  99]+0.012*[#  59]+0.011*[#  86]+0.011*[#  16]+0.011*[#  43]
          +0.011*[#   9]+0.011*[#  54]+0.009*[#  80]+0.009*[# 116]+0.008*[#  36]
          +0.008*[# 108]+0.005*[#  26]+0.005*[#  98]+0.004*[#  24]+0.004*[#  34]
          +0.004*[#  96]+0.004*[# 106]+0.004*[#   5]+0.004*[#  50]+0.004*[#  18]
          +0.004*[#   6]+0.004*[#  45]+0.004*[#  51]+0.003*[#  32]+0.003*[# 104]
          +0.003*[#  14]+0.003*[#  41]+0.002*[#  31]+0.002*[# 103]+0.002*[#  74]
          +0.002*[# 110]+0.001*[#   3]+0.001*[#  48]
    |psi|^2 = 0.999
==== e(  54) =    -7.04812 eV ==== 
     psi = 0.095*[#  78]+0.095*[# 114]+0.054*[#   5]+0.054*[#  50]+0.039*[#  54]
          +0.039*[#   9]+0.039*[#   6]+0.039*[#  51]+0.035*[#  35]+0.035*[# 107]
          +0.034*[#  60]+0.033*[#  87]+0.033*[#  59]+0.033*[#  86]+0.033*[# 113]
          +0.032*[#  77]+0.025*[#  90]+0.024*[#  63]+0.017*[#  34]+0.016*[# 106]
          +0.013*[#  24]+0.013*[#  96]+0.013*[#  32]+0.013*[# 104]+0.010*[#  17]
          +0.010*[#  44]+0.009*[#  14]+0.009*[#  41]+0.008*[#  80]+0.008*[# 116]
          +0.006*[#  23]+0.006*[#  95]+0.006*[#  25]+0.006*[#  97]+0.004*[#  36]
          +0.004*[# 108]+0.003*[#  81]+0.003*[#  20]+0.003*[#  26]+0.003*[#  92]
          +0.003*[#  98]+0.003*[# 117]+0.003*[#  12]+0.003*[#  39]+0.002*[#  33]
          +0.002*[#  79]+0.002*[# 115]+0.002*[#  27]+0.002*[#  99]+0.002*[# 105]
          +0.001*[#  15]+0.001*[#  30]+0.001*[#  42]+0.001*[# 102]
    |psi|^2 = 0.999
==== e(  55) =    -7.04800 eV ==== 
     psi = 0.059*[#  25]+0.059*[#  97]+0.054*[# 108]+0.054*[#  36]+0.044*[#  45]
          +0.044*[#  18]+0.039*[#  43]+0.039*[#  16]+0.036*[#  77]+0.036*[# 113]
          +0.032*[#   6]+0.032*[#  51]+0.032*[#  90]+0.032*[#  63]+0.030*[#   7]
          +0.030*[#  52]+0.028*[#  35]+0.028*[# 107]+0.019*[#   8]+0.019*[#  53]
          +0.018*[#   5]+0.018*[#  50]+0.015*[#  62]+0.015*[#  89]+0.014*[#  80]
          +0.014*[# 116]+0.013*[#  34]+0.013*[# 106]+0.012*[#  78]+0.012*[# 114]
          +0.008*[#  60]+0.008*[#  87]+0.007*[#  14]+0.007*[#  41]+0.006*[#  27]
          +0.006*[#  99]+0.006*[#  59]+0.006*[#  86]+0.005*[#  61]+0.005*[#  88]
          +0.004*[#  96]+0.003*[#  24]+0.003*[#  23]+0.003*[#  95]+0.002*[#  79]
          +0.002*[# 115]+0.002*[#  22]+0.002*[#  94]+0.002*[#   9]+0.002*[#  54]
          +0.002*[#  57]+0.002*[#  74]+0.002*[#  84]+0.002*[# 110]+0.001*[#  13]
          +0.001*[#  40]+0.001*[#   2]+0.001*[#  47]
    |psi|^2 = 0.999
==== e(  56) =    -6.96025 eV ==== 
     psi = 0.101*[# 115]+0.101*[#  79]+0.065*[# 104]+0.065*[#  32]+0.052*[#  14]
          +0.052*[#  41]+0.043*[#   8]+0.043*[#  53]+0.041*[#  16]+0.040*[#  43]
          +0.038*[#  24]+0.038*[#  96]+0.029*[#  18]+0.029*[#  45]+0.019*[#  36]
          +0.019*[# 108]+0.015*[#  34]+0.016*[# 106]+0.014*[#   6]+0.014*[#  51]
          +0.011*[#  86]+0.011*[#  59]+0.010*[#  33]+0.010*[# 105]+0.009*[#  62]
          +0.009*[#  89]+0.007*[# 114]+0.007*[#  78]+0.007*[#  81]+0.007*[# 117]
          +0.005*[#   5]+0.005*[#  50]+0.005*[#  60]+0.005*[#  87]+0.004*[#  27]
          +0.004*[#  99]+0.004*[#  80]+0.004*[# 116]+0.003*[#  63]+0.003*[#  90]
          +0.003*[#  26]+0.003*[#  35]+0.003*[#  98]+0.003*[# 107]+0.003*[#  25]
          +0.003*[#  97]+0.003*[#  17]+0.003*[#  44]+0.002*[#   9]+0.002*[#  54]
          +0.001*[#  23]+0.001*[#  95]+0.001*[#  61]+0.001*[#  88]
    |psi|^2 = 1.000
==== e(  57) =    -6.96019 eV ==== 
     psi = 0.062*[#  33]+0.062*[#  86]+0.062*[#  59]+0.062*[# 105]+0.038*[#   7]
          +0.038*[#  52]+0.036*[#  50]+0.036*[#   5]+0.033*[#  27]+0.033*[#  99]
          +0.032*[#  24]+0.032*[#  96]+0.030*[#   8]+0.030*[#  53]+0.029*[#  34]
          +0.029*[# 106]+0.028*[# 107]+0.028*[#  35]+0.025*[#  81]+0.025*[# 117]
          +0.019*[#  63]+0.019*[#  90]+0.013*[#  79]+0.013*[# 115]+0.012*[#   9]
          +0.012*[#  26]+0.012*[#  54]+0.012*[#  98]+0.010*[#  62]+0.010*[#  89]
          +0.008*[#  60]+0.008*[#  87]+0.008*[#  15]+0.007*[#   6]+0.007*[#  42]
          +0.007*[#  51]+0.007*[#  14]+0.007*[#  41]+0.007*[#  17]+0.007*[#  44]
          +0.006*[#  80]+0.006*[# 116]+0.004*[#  36]+0.005*[# 108]+0.004*[#  16]
          +0.004*[#  43]+0.004*[#  25]+0.004*[#  97]+0.001*[#  23]+0.001*[#  95]
          
    |psi|^2 = 1.000
==== e(  58) =    -6.96013 eV ==== 
     psi = 0.064*[#  81]+0.064*[#  99]+0.063*[#  27]+0.064*[# 117]+0.055*[#  62]
          +0.055*[#  89]+0.043*[#  24]+0.043*[#  96]+0.031*[#   8]+0.031*[#  53]
          +0.029*[#  42]+0.029*[#  15]+0.028*[#  17]+0.028*[#  44]+0.025*[#  61]
          +0.024*[#  88]+0.021*[#  14]+0.021*[#  41]+0.020*[#  16]+0.020*[#  43]
          +0.018*[#  80]+0.018*[# 116]+0.017*[#   6]+0.017*[#  51]+0.017*[#  59]
          +0.017*[#  86]+0.016*[#  60]+0.016*[#  87]+0.010*[#   5]+0.010*[#  50]
          +0.009*[#  26]+0.009*[#  98]+0.009*[#  63]+0.009*[#  90]+0.008*[#  32]
          +0.007*[# 104]+0.004*[#   9]+0.004*[#  54]+0.003*[#  79]+0.003*[# 115]
          +0.002*[#  36]+0.002*[# 108]+0.002*[#  33]+0.002*[# 105]+0.001*[#  23]
          +0.001*[#  34]+0.001*[#  95]+0.001*[# 106]
    |psi|^2 = 1.000
==== e(  59) =    -6.92951 eV ==== 
     psi = 0.140*[#  70]+0.095*[#  32]+0.095*[# 104]+0.090*[#  34]+0.090*[# 106]
          +0.046*[#  68]+0.046*[#  69]+0.041*[#  33]+0.041*[# 105]+0.018*[#  61]
          +0.018*[#  88]+0.015*[#  14]+0.015*[#  41]+0.015*[#  15]+0.015*[#  42]
          +0.011*[#  24]+0.011*[#  96]+0.011*[#  72]+0.010*[#   6]+0.010*[#  51]
          +0.009*[#  16]+0.009*[#  43]+0.009*[#  62]+0.009*[#  89]+0.008*[#  79]
          +0.008*[# 115]+0.008*[#   8]+0.008*[#  53]+0.007*[#  71]+0.007*[#  36]
          +0.007*[# 108]+0.007*[#  77]+0.007*[# 113]+0.004*[#  18]+0.004*[#  45]
          +0.004*[#  23]+0.004*[#  27]+0.004*[#  95]+0.003*[#  99]+0.003*[#  60]
          +0.003*[#  87]+0.003*[#  25]+0.003*[#  97]+0.002*[#  35]+0.002*[#  59]
          +0.002*[#  86]+0.002*[# 107]+0.001*[#  17]+0.001*[#  44]+0.001*[#  29]
          +0.001*[#  63]+0.001*[#  90]+0.001*[#  74]+0.001*[# 101]+0.001*[# 110]
          
    |psi|^2 = 0.999
==== e(  60) =    -6.92920 eV ==== 
     psi = 0.177*[#  68]+0.096*[#  42]+0.096*[#  15]+0.047*[#  69]+0.041*[#  14]
          +0.041*[#  41]+0.039*[#  43]+0.039*[#  16]+0.036*[#  23]+0.036*[#  95]
          +0.030*[#  77]+0.030*[# 113]+0.022*[#  45]+0.021*[#  18]+0.019*[#   7]
          +0.019*[#  52]+0.017*[#  70]+0.015*[#  36]+0.015*[# 108]+0.008*[#  80]
          +0.008*[# 116]+0.008*[#  26]+0.008*[#  98]+0.007*[#   6]+0.007*[#  51]
          +0.007*[#  72]+0.006*[#  81]+0.006*[# 117]+0.006*[#  34]+0.006*[#  79]
          +0.006*[# 106]+0.006*[# 115]+0.005*[#  60]+0.005*[#  87]+0.005*[#  17]
          +0.005*[#  44]+0.004*[#  63]+0.004*[#  90]+0.003*[#  59]+0.003*[#  62]
          +0.003*[#  86]+0.003*[#  89]+0.003*[#   8]+0.003*[#  27]+0.003*[#  53]
          +0.003*[#  99]+0.002*[#  33]+0.002*[#  71]+0.002*[# 105]+0.002*[#  61]
          +0.002*[#  88]
    |psi|^2 = 0.999
==== e(  61) =    -6.92915 eV ==== 
     psi = 0.168*[#  71]+0.130*[# 116]+0.130*[#  80]+0.059*[#  72]+0.037*[#  81]
          +0.037*[#   9]+0.037*[#  54]+0.037*[# 117]+0.031*[#  77]+0.031*[# 113]
          +0.026*[#   7]+0.026*[#  52]+0.025*[#  27]+0.025*[#  99]+0.021*[#  98]
          +0.021*[#  26]+0.020*[#  70]+0.009*[#  34]+0.009*[# 106]+0.007*[#  15]
          +0.007*[#  42]+0.007*[#  16]+0.007*[#  43]+0.006*[#  35]+0.006*[#  60]
          +0.006*[#  87]+0.006*[# 107]+0.004*[#  23]+0.004*[#  25]+0.004*[#  97]
          +0.004*[#  95]+0.003*[#  61]+0.003*[#  88]+0.002*[#  59]+0.002*[#  86]
          +0.002*[#  68]+0.002*[#   8]+0.002*[#  53]+0.002*[#  63]+0.002*[#  90]
          +0.001*[#  36]+0.001*[# 108]+0.001*[#   5]+0.001*[#  14]+0.001*[#  41]
          +0.001*[#  32]+0.001*[#  50]+0.001*[#  62]+0.001*[#  89]+0.001*[# 104]
          +0.001*[#  22]+0.001*[#  94]
    |psi|^2 = 0.999
==== e(  62) =    -6.92889 eV ==== 
     psi = 0.121*[#  72]+0.107*[#  98]+0.107*[#  26]+0.096*[#   9]+0.096*[#  54]
          +0.069*[#  71]+0.041*[#   6]+0.041*[#  51]+0.040*[#  69]+0.023*[#  23]
          +0.023*[#  95]+0.017*[#  70]+0.015*[#   7]+0.015*[#  52]+0.013*[#  27]
          +0.013*[#  99]+0.010*[#  81]+0.010*[#  33]+0.010*[# 105]+0.010*[# 117]
          +0.008*[#  59]+0.008*[#  86]+0.007*[#  17]+0.007*[#  44]+0.006*[#   5]
          +0.006*[#  50]+0.006*[#  14]+0.006*[#  41]+0.005*[#  78]+0.005*[# 114]
          +0.005*[#  61]+0.005*[#  88]+0.002*[#  63]+0.003*[#  90]+0.002*[#  25]
          +0.002*[#  34]+0.002*[#  97]+0.002*[# 106]+0.002*[#  24]+0.002*[#  32]
          +0.002*[#  96]+0.002*[# 104]+0.002*[#  15]+0.002*[#  42]+0.002*[#  18]
          +0.002*[#  45]+0.001*[#  75]+0.001*[# 111]+0.001*[#   3]
    |psi|^2 = 0.999
==== e(  63) =    -6.92877 eV ==== 
     psi = 0.116*[#  69]+0.078*[#  87]+0.078*[#  60]+0.078*[#  88]+0.078*[#  61]
          +0.068*[#  63]+0.068*[#  90]+0.055*[#  70]+0.051*[#  72]+0.024*[#  68]
          +0.022*[#  50]+0.022*[#   5]+0.018*[#  26]+0.018*[#  98]+0.014*[#  14]
          +0.014*[#  41]+0.011*[#  78]+0.011*[# 114]+0.010*[#  80]+0.010*[#  35]
          +0.010*[# 107]+0.010*[# 116]+0.008*[#  25]+0.008*[#  97]+0.006*[#  24]
          +0.006*[#  96]+0.006*[#  17]+0.006*[#  44]+0.006*[#  77]+0.006*[# 113]
          +0.005*[#  23]+0.005*[#  95]+0.004*[#   6]+0.004*[#  51]+0.004*[#  34]
          +0.004*[# 106]+0.003*[#   7]+0.003*[#   9]+0.003*[#  52]+0.003*[#  54]
          +0.003*[#  71]+0.003*[#  18]+0.003*[#  45]+0.002*[#  16]+0.002*[#  43]
          +0.002*[#  36]+0.002*[# 108]+0.002*[#  15]+0.002*[#  42]+0.002*[#  59]
          +0.002*[#  62]+0.002*[#  89]+0.002*[#  86]
    |psi|^2 = 0.999
==== e(  64) =    -6.79407 eV ==== 
     psi = 0.059*[#  35]+0.059*[# 107]+0.053*[#  97]+0.053*[#  25]+0.044*[#  62]
          +0.044*[#  89]+0.044*[#  61]+0.044*[#  88]+0.040*[#  77]+0.040*[# 113]
          +0.034*[#  18]+0.034*[#  45]+0.032*[#  23]+0.032*[#  95]+0.030*[#  36]
          +0.030*[# 108]+0.027*[#  33]+0.027*[# 105]+0.024*[#  16]+0.024*[#  43]
          +0.022*[#  17]+0.022*[#  44]+0.021*[#  60]+0.021*[#  87]+0.012*[#  78]
          +0.012*[# 114]+0.011*[#  26]+0.011*[#  98]+0.011*[#  80]+0.011*[# 116]
          +0.005*[#  24]+0.005*[#  96]+0.005*[#  34]+0.005*[# 106]+0.004*[#   7]
          +0.004*[#  52]+0.004*[#  63]+0.004*[#  90]+0.003*[#   5]+0.003*[#  50]
          +0.003*[#  59]+0.003*[#  86]+0.003*[#  81]+0.003*[# 117]+0.002*[#   9]
          +0.002*[#  54]+0.001*[#  79]+0.001*[# 115]+0.001*[#  14]+0.001*[#  41]
          
    |psi|^2 = 1.000
==== e(  65) =    -6.79396 eV ==== 
     psi = 0.059*[#  23]+0.059*[#  95]+0.057*[#   7]+0.057*[#  52]+0.050*[#  17]
          +0.050*[#  44]+0.040*[#  77]+0.040*[# 113]+0.039*[#  36]+0.039*[# 108]
          +0.038*[#  18]+0.038*[#  45]+0.032*[#  25]+0.032*[#  97]+0.031*[#   6]
          +0.031*[#  51]+0.029*[#  15]+0.029*[#  42]+0.017*[#   8]+0.017*[#  53]
          +0.015*[#  26]+0.015*[#  98]+0.011*[#  80]+0.011*[# 116]+0.010*[#  63]
          +0.010*[#  90]+0.009*[#  35]+0.009*[#  34]+0.009*[# 106]+0.009*[# 107]
          +0.008*[#  14]+0.008*[#  41]+0.007*[#   5]+0.007*[#  50]+0.006*[#  27]
          +0.006*[#  99]+0.006*[#  61]+0.005*[#  59]+0.006*[#  86]+0.006*[#  88]
          +0.005*[#   9]+0.005*[#  54]+0.004*[#  78]+0.004*[# 114]+0.003*[#  33]
          +0.003*[# 105]+0.003*[#  32]+0.003*[# 104]+0.003*[#  81]+0.003*[# 117]
          +0.001*[#  62]+0.001*[#  89]
    |psi|^2 = 1.000
==== e(  66) =    -6.79384 eV ==== 
     psi = 0.101*[# 114]+0.101*[#  78]+0.055*[#   5]+0.055*[#  50]+0.048*[#  63]
          +0.048*[#  90]+0.035*[#   9]+0.035*[#  54]+0.033*[#  25]+0.033*[#  97]
          +0.033*[#  60]+0.033*[#  87]+0.029*[#   6]+0.029*[#  51]+0.024*[#  36]
          +0.024*[# 108]+0.024*[#  35]+0.024*[#  59]+0.024*[#  86]+0.024*[# 107]
          +0.016*[#  18]+0.016*[#  45]+0.013*[#  17]+0.013*[#  44]+0.013*[#  34]
          +0.013*[#  77]+0.013*[# 106]+0.013*[# 113]+0.012*[#  16]+0.012*[#  43]
          +0.006*[#  79]+0.006*[# 115]+0.005*[#  62]+0.005*[#  89]+0.003*[#   8]
          +0.003*[#  32]+0.003*[#  53]+0.003*[# 104]+0.002*[#  80]+0.003*[# 116]
          +0.002*[#  81]+0.002*[# 117]+0.002*[#  24]+0.002*[#  96]+0.001*[#  61]
          +0.001*[#  88]
    |psi|^2 = 1.000
==== e(  67) =    -6.08224 eV ==== 
     psi = 0.069*[#  67]+0.047*[#   1]+0.047*[#  46]+0.037*[#  73]+0.037*[# 109]
          +0.031*[#  28]+0.031*[# 100]+0.031*[#  13]+0.031*[#  40]+0.029*[#  27]
          +0.029*[#  99]+0.026*[#  22]+0.026*[#  94]+0.023*[#  59]+0.023*[#  86]
          +0.021*[#  16]+0.021*[#  43]+0.018*[#  65]+0.016*[#  58]+0.016*[#  85]
          +0.015*[#  56]+0.015*[#  83]+0.011*[#  34]+0.011*[# 106]+0.010*[#  31]
          +0.010*[# 103]+0.010*[#  79]+0.010*[# 115]+0.009*[#   8]+0.009*[#  53]
          +0.008*[#  14]+0.008*[#  74]+0.008*[# 110]+0.008*[#  26]+0.008*[#  41]
          +0.008*[#  98]+0.008*[#  24]+0.008*[#  63]+0.008*[#  18]+0.008*[#  45]
          +0.008*[#  90]+0.008*[#  96]+0.007*[#  20]+0.007*[#  92]+0.007*[#  62]
          +0.007*[#  89]+0.006*[#   3]+0.006*[#  35]+0.006*[#  48]+0.006*[# 107]
          +0.006*[#  55]+0.006*[#  82]+0.006*[#  30]+0.006*[# 102]+0.006*[#  75]
          +0.006*[# 111]+0.005*[#  17]+0.005*[#  33]+0.005*[#  44]+0.005*[# 105]
          +0.004*[#  80]+0.004*[# 116]+0.004*[#  81]+0.004*[# 117]+0.004*[#  60]
          +0.004*[#  87]+0.004*[#  66]+0.003*[#   7]+0.003*[#  52]+0.003*[#  15]
          +0.003*[#  42]+0.003*[#  10]+0.003*[#  11]+0.002*[#  37]+0.003*[#  38]
          +0.002*[#   4]+0.002*[#  49]+0.002*[#  21]+0.002*[#  93]+0.002*[#  25]
          +0.002*[#  29]+0.002*[#  97]+0.002*[# 101]+0.001*[#  32]+0.001*[# 104]
          
    |psi|^2 = 0.997
==== e(  68) =    -6.08194 eV ==== 
     psi = 0.059*[#  10]+0.059*[#  37]+0.055*[#  65]+0.029*[#  24]+0.029*[#  96]
          +0.026*[#  32]+0.026*[# 104]+0.025*[#  79]+0.025*[# 115]+0.024*[#  20]
          +0.024*[#  92]+0.023*[#  73]+0.023*[# 109]+0.022*[#  67]+0.020*[#  55]
          +0.020*[#  82]+0.020*[#  74]+0.020*[# 110]+0.018*[#  57]+0.018*[#  84]
          +0.016*[#   2]+0.016*[#  47]+0.016*[#   4]+0.016*[#  49]+0.015*[#  31]
          +0.015*[# 103]+0.015*[#   8]+0.015*[#  53]+0.014*[#   6]+0.014*[#  51]
          +0.014*[#  66]+0.010*[#  19]+0.010*[#  59]+0.010*[#  86]+0.010*[#   5]
          +0.010*[#  50]+0.010*[#  91]+0.010*[#  62]+0.010*[#  89]+0.009*[#  30]
          +0.008*[# 102]+0.008*[#  27]+0.008*[#  28]+0.008*[#  99]+0.008*[# 100]
          +0.007*[#  61]+0.007*[#  88]+0.007*[#  29]+0.007*[# 101]+0.007*[#  36]
          +0.007*[# 108]+0.005*[#  22]+0.005*[#  94]+0.005*[#  56]+0.005*[#  83]
          +0.004*[#  34]+0.004*[# 106]+0.004*[#   1]+0.004*[#  46]+0.003*[#  33]
          +0.003*[# 105]+0.003*[#  63]+0.003*[#  90]+0.003*[#   9]+0.003*[#  54]
          +0.003*[#  81]+0.003*[# 117]+0.002*[#  16]+0.002*[#  43]+0.002*[#   7]
          +0.002*[#  52]+0.002*[#  75]+0.002*[#  78]+0.002*[# 111]+0.002*[# 114]
          +0.002*[#   3]+0.002*[#  48]+0.001*[#  23]+0.001*[#  60]+0.001*[#  87]
          +0.001*[#  95]
    |psi|^2 = 0.997
==== e(  69) =    -6.08178 eV ==== 
     psi = 0.074*[#  66]+0.052*[#  19]+0.052*[#  91]+0.036*[#  55]+0.036*[#  82]
          +0.029*[#  81]+0.029*[# 117]+0.026*[#  12]+0.026*[#  39]+0.025*[#  75]
          +0.025*[# 111]+0.023*[#  28]+0.023*[# 100]+0.022*[#  14]+0.022*[#  41]
          +0.019*[#  33]+0.019*[# 105]+0.018*[#  30]+0.018*[# 102]+0.017*[#  65]
          +0.015*[#   8]+0.015*[#  53]+0.013*[#   2]+0.013*[#  47]+0.013*[#   3]
          +0.013*[#  48]+0.011*[#  15]+0.011*[#  42]+0.011*[#  62]+0.011*[#  89]
          +0.011*[#   1]+0.011*[#  46]+0.010*[#   7]+0.010*[#  52]+0.009*[#   5]
          +0.009*[#  50]+0.009*[#  79]+0.009*[# 115]+0.008*[#  11]+0.008*[#  17]
          +0.009*[#  38]+0.008*[#  44]+0.008*[#  57]+0.008*[#  84]+0.007*[#  58]
          +0.007*[#  85]+0.007*[#  74]+0.007*[# 110]+0.007*[#  80]+0.007*[# 116]
          +0.006*[#  60]+0.006*[#  87]+0.006*[#  24]+0.006*[#  96]+0.005*[#  35]
          +0.005*[# 107]+0.004*[#   9]+0.004*[#  20]+0.004*[#  54]+0.004*[#  92]
          +0.003*[#  31]+0.003*[# 103]+0.003*[#  36]+0.003*[# 108]+0.003*[#  18]
          +0.003*[#  45]+0.003*[#   4]+0.003*[#  49]+0.002*[#  34]+0.002*[# 106]
          +0.002*[#  61]+0.002*[#  73]+0.002*[#  88]+0.002*[# 109]+0.002*[#  22]
          +0.002*[#  94]+0.002*[#  76]+0.002*[# 112]+0.001*[#  16]+0.001*[#  26]
          +0.001*[#  43]+0.001*[#  98]+0.001*[#  27]+0.001*[#  99]
    |psi|^2 = 0.997
==== e(  70) =    -3.90074 eV ==== 
     psi = 0.090*[#  28]+0.090*[# 100]+0.080*[#  74]+0.080*[# 110]+0.054*[#  31]
          +0.054*[# 103]+0.048*[#  55]+0.048*[#  82]+0.034*[#   3]+0.034*[#  48]
          +0.027*[#   2]+0.027*[#  47]+0.026*[#  22]+0.026*[#  94]+0.018*[#  70]
          +0.018*[#  10]+0.018*[#  37]+0.017*[#  13]+0.017*[#  40]+0.015*[#  58]
          +0.015*[#  85]+0.015*[#  20]+0.015*[#  92]+0.009*[#  73]+0.009*[# 109]
          +0.008*[#   4]+0.008*[#  49]+0.005*[#  21]+0.005*[#  93]+0.004*[#  75]
          +0.004*[# 111]+0.004*[#  18]+0.004*[#  45]+0.003*[#  72]+0.003*[#  71]
          +0.002*[#  19]+0.003*[#  91]+0.002*[#   8]+0.002*[#  25]+0.002*[#  53]
          +0.002*[#  97]+0.002*[#  62]+0.002*[#  79]+0.002*[#  89]+0.002*[# 115]
          +0.002*[#  34]+0.002*[# 106]+0.002*[#  76]+0.002*[# 112]+0.002*[#  60]
          +0.002*[#  87]+0.001*[#  12]+0.001*[#  39]+0.001*[#   5]+0.001*[#  29]
          +0.001*[#  50]+0.001*[#  57]+0.001*[#  77]+0.001*[#  84]+0.001*[# 101]
          +0.001*[# 113]+0.001*[#  17]+0.001*[#  24]+0.001*[#  44]+0.001*[#  96]
          
    |psi|^2 = 0.989
==== e(  71) =    -3.90043 eV ==== 
     psi = 0.063*[#  57]+0.063*[#  84]+0.049*[#   1]+0.049*[#  46]+0.048*[#  19]
          +0.048*[#  91]+0.043*[#  13]+0.043*[#  40]+0.038*[#  73]+0.038*[# 109]
          +0.036*[#   3]+0.036*[#  48]+0.029*[#  22]+0.029*[#  94]+0.028*[#  10]
          +0.028*[#  37]+0.025*[#  56]+0.025*[#  83]+0.024*[#  74]+0.024*[# 110]
          +0.019*[#  12]+0.019*[#  21]+0.019*[#  39]+0.019*[#  93]+0.012*[#  71]
          +0.010*[#  58]+0.010*[#  85]+0.009*[#  11]+0.009*[#  38]+0.006*[#  70]
          +0.006*[#  76]+0.006*[# 112]+0.004*[#  72]+0.004*[#  68]+0.003*[#  55]
          +0.003*[#  77]+0.003*[#  82]+0.003*[# 113]+0.003*[#  16]+0.003*[#  35]
          +0.003*[#  43]+0.003*[# 107]+0.002*[#  29]+0.002*[# 101]+0.002*[#   6]
          +0.002*[#  25]+0.002*[#  31]+0.002*[#  36]+0.002*[#  51]+0.002*[#  97]
          +0.002*[# 103]+0.002*[# 108]+0.001*[#  26]+0.001*[#  30]+0.001*[#  59]
          +0.001*[#  86]+0.001*[#  98]+0.001*[# 102]+0.001*[#   7]+0.001*[#  52]
          
    |psi|^2 = 0.989
==== e(  72) =    -3.90009 eV ==== 
     psi = 0.061*[#  10]+0.061*[#  37]+0.059*[#  73]+0.059*[# 109]+0.056*[#   2]
[...]
          +0.057*[#  39]+0.038*[#  28]+0.038*[# 100]+0.031*[#  73]+0.031*[# 109]
          +0.030*[#  56]+0.030*[#  83]+0.023*[#  31]+0.023*[# 103]+0.021*[#  30]
          +0.021*[# 102]+0.016*[#  29]+0.016*[# 101]+0.016*[#  69]+0.015*[#   1]
          +0.015*[#  10]+0.015*[#  37]+0.015*[#  46]+0.014*[#  22]+0.014*[#  94]
          +0.013*[#  57]+0.013*[#  84]+0.009*[#  58]+0.009*[#  85]+0.008*[#  11]
          +0.008*[#  38]+0.008*[#  75]+0.008*[# 111]+0.007*[#   2]+0.007*[#  47]
          +0.006*[#  68]+0.003*[#  76]+0.003*[# 112]+0.003*[#  78]+0.003*[# 114]
          +0.002*[#  17]+0.002*[#  44]+0.002*[#  24]+0.002*[#  96]+0.002*[#   5]
          +0.002*[#  13]+0.002*[#  19]+0.002*[#  40]+0.002*[#  50]+0.002*[#  72]
          +0.002*[#  91]+0.001*[#   3]+0.001*[#  48]+0.001*[#   9]+0.001*[#  54]
          +0.001*[#  62]+0.001*[#  89]
    |psi|^2 = 0.990
==== e(  75) =    -2.84369 eV ==== 
     psi = 0.058*[#  64]+0.037*[#   1]+0.037*[#  10]+0.037*[#  19]+0.037*[#  28]
          +0.037*[#  37]+0.037*[#  46]+0.037*[#  55]+0.037*[#  73]+0.037*[#  82]
          +0.037*[#  91]+0.037*[# 100]+0.037*[# 109]+0.032*[#  21]+0.032*[#  93]
          +0.032*[#  76]+0.032*[# 112]+0.025*[#  29]+0.025*[# 101]+0.023*[#  11]
          +0.023*[#  38]+0.014*[#   3]+0.014*[#  48]+0.014*[#   4]+0.014*[#  49]
          +0.014*[#  56]+0.014*[#  83]+0.011*[#  58]+0.011*[#  85]+0.009*[#  57]
          +0.009*[#  84]+0.008*[#  12]+0.008*[#  39]+0.006*[#  31]+0.006*[# 103]
          +0.006*[#   2]+0.006*[#  47]+0.004*[#  26]+0.004*[#  98]+0.004*[#  80]
          +0.004*[# 116]+0.003*[#   9]+0.003*[#  13]+0.003*[#  40]+0.003*[#  54]
          +0.003*[#  15]+0.003*[#  42]+0.003*[#  30]+0.003*[#  34]+0.003*[# 102]
          +0.003*[# 106]+0.002*[#  61]+0.002*[#  88]+0.002*[#  32]+0.002*[# 104]
          +0.002*[#  60]+0.002*[#  75]+0.002*[#  87]+0.002*[# 111]+0.002*[#  14]
          +0.002*[#  22]+0.002*[#  41]+0.002*[#  63]+0.002*[#  90]+0.002*[#  94]
          +0.001*[#  23]+0.002*[#  77]+0.001*[#  95]+0.002*[# 113]+0.001*[#   6]
          +0.001*[#   7]+0.001*[#  51]+0.001*[#  52]+0.001*[#  16]+0.001*[#  43]
          +0.001*[#  33]+0.001*[#  81]+0.001*[# 105]+0.001*[# 117]
    |psi|^2 = 0.987
==== e(  76) =    -1.43564 eV ==== 
     psi = 0.106*[#  28]+0.106*[# 100]+0.081*[#  10]+0.080*[#  37]+0.068*[#  29]
          +0.068*[# 101]+0.048*[#  11]+0.048*[#  38]+0.043*[#  19]+0.043*[#  91]
          +0.035*[#  21]+0.035*[#  93]+0.029*[#  73]+0.029*[# 109]+0.023*[#  76]
          +0.023*[# 112]+0.017*[#  31]+0.017*[# 103]+0.016*[#  12]+0.016*[#  39]
          +0.007*[#  30]+0.007*[# 102]+0.006*[#  13]+0.006*[#  40]+0.002*[#   1]
          +0.002*[#  46]+0.002*[#  22]+0.002*[#  77]+0.002*[#  94]+0.002*[# 113]
          +0.002*[#  23]+0.002*[#  95]+0.002*[#  75]+0.002*[# 111]+0.001*[#   6]
          +0.001*[#  51]
    |psi|^2 = 0.995
==== e(  77) =    -1.43519 eV ==== 
     psi = 0.104*[#   1]+0.104*[#  46]+0.078*[#  73]+0.078*[# 109]+0.063*[#  76]
          +0.063*[# 112]+0.056*[#  19]+0.056*[#  91]+0.046*[#  21]+0.046*[#  93]
          +0.038*[#   3]+0.038*[#  48]+0.038*[#   4]+0.038*[#  49]+0.018*[#  10]
          +0.018*[#  37]+0.015*[#   2]+0.015*[#  47]+0.011*[#  11]+0.011*[#  38]
          +0.005*[#  28]+0.005*[# 100]+0.004*[#  75]+0.004*[# 111]+0.004*[#  12]
          +0.004*[#  39]+0.003*[#  29]+0.003*[# 101]+0.002*[#  22]+0.002*[#  94]
          +0.001*[#  13]+0.001*[#  40]+0.001*[#   9]+0.001*[#  54]+0.001*[#  17]
          
    |psi|^2 = 0.995
==== e(  78) =    -1.43505 eV ==== 
     psi = 0.130*[#  55]+0.130*[#  82]+0.046*[#  56]+0.046*[#  83]+0.036*[#  58]
          +0.036*[#  85]+0.032*[#  10]+0.032*[#  37]+0.031*[#  19]+0.031*[#  91]
          +0.031*[#  57]+0.031*[#  84]+0.026*[#  21]+0.026*[#  93]+0.024*[#   1]
          +0.024*[#  46]+0.024*[#  73]+0.024*[# 109]+0.020*[#  28]+0.020*[# 100]
          +0.019*[#  76]+0.019*[# 112]+0.019*[#  11]+0.019*[#  38]+0.013*[#  29]
          +0.013*[# 101]+0.009*[#   3]+0.009*[#  48]+0.009*[#   4]+0.009*[#  49]
          +0.006*[#  12]+0.006*[#  39]+0.003*[#   2]+0.003*[#  47]+0.003*[#  31]
          +0.003*[# 103]+0.003*[#  13]+0.003*[#  40]+0.002*[#  25]+0.002*[#  78]
          +0.002*[#  97]+0.002*[# 114]+0.001*[#  22]+0.001*[#  30]+0.001*[#  75]
          +0.001*[#  94]+0.001*[# 102]+0.001*[# 111]+0.001*[#   5]+0.001*[#  50]
          
    |psi|^2 = 0.995
==== e(  79) =    -1.13411 eV ==== 
     psi = 0.081*[#  29]+0.081*[# 101]+0.073*[#   4]+0.073*[#  49]+0.064*[#   3]
          +0.064*[#  48]+0.051*[#  11]+0.051*[#  38]+0.046*[#  76]+0.046*[# 112]
          +0.038*[#   2]+0.038*[#  47]+0.028*[#  31]+0.028*[# 103]+0.023*[#  65]
          +0.019*[#  67]+0.018*[#  12]+0.018*[#  39]+0.011*[#  21]+0.011*[#  93]
          +0.009*[#  66]+0.007*[#   1]+0.007*[#  46]+0.006*[#  58]+0.006*[#  85]
          +0.004*[#  28]+0.004*[# 100]+0.004*[#  57]+0.004*[#  84]+0.003*[#  10]
          +0.003*[#  37]+0.002*[#  20]+0.003*[#  74]+0.002*[#  92]+0.003*[# 110]
          +0.002*[#  59]+0.002*[#  86]+0.002*[#  16]+0.002*[#  43]+0.002*[#  33]
          +0.002*[#  73]+0.002*[# 105]+0.002*[# 109]+0.001*[#  24]+0.001*[#  30]
          +0.001*[#  79]+0.001*[#  96]+0.001*[# 102]+0.001*[# 115]+0.001*[#   9]
          +0.001*[#  22]+0.001*[#  27]+0.001*[#  54]+0.001*[#  94]+0.001*[#  99]
          +0.001*[#  81]+0.001*[# 117]
    |psi|^2 = 0.971
==== e(  80) =    -1.13405 eV ==== 
     psi = 0.137*[#  76]+0.137*[# 112]+0.092*[#  21]+0.092*[#  93]+0.064*[#  11]
          +0.064*[#  38]+0.033*[#  12]+0.033*[#  39]+0.028*[#  67]+0.021*[#  13]
          +0.021*[#  40]+0.019*[#  66]+0.017*[#  75]+0.017*[# 111]+0.015*[#  58]
          +0.015*[#  85]+0.014*[#  22]+0.014*[#  94]+0.010*[#  31]+0.010*[# 103]
          +0.009*[#  56]+0.009*[#  83]+0.006*[#  73]+0.006*[# 109]+0.005*[#  30]
          +0.005*[# 102]+0.005*[#  10]+0.005*[#  37]+0.005*[#  65]+0.004*[#  19]
          +0.004*[#  91]+0.004*[#   3]+0.004*[#  48]+0.003*[#   4]+0.003*[#  49]
          +0.002*[#   8]+0.002*[#  53]+0.002*[#  32]+0.002*[# 104]+0.002*[#  14]
          +0.002*[#  29]+0.002*[#  41]+0.002*[# 101]+0.002*[#  74]+0.002*[#  80]
          +0.002*[# 116]+0.002*[#  62]+0.002*[#  89]+0.002*[# 110]+0.001*[#  26]
          +0.001*[#  98]
    |psi|^2 = 0.971
==== e(  81) =    -1.13391 eV ==== 
     psi = 0.086*[#  21]+0.086*[#  93]+0.076*[#  56]+0.076*[#  83]+0.066*[#  29]
          +0.066*[# 101]+0.056*[#  57]+0.056*[#  84]+0.048*[#  58]+0.048*[#  85]
          +0.024*[#  66]+0.023*[#  65]+0.023*[#  11]+0.022*[#  38]+0.020*[#   3]
          +0.020*[#  48]+0.015*[#  30]+0.015*[# 102]+0.011*[#   4]+0.011*[#  49]
          +0.007*[#  55]+0.007*[#  82]+0.006*[#  20]+0.006*[#  92]+0.006*[#  31]
          +0.006*[# 103]+0.005*[#  76]+0.005*[# 112]+0.004*[#  67]+0.004*[#  19]
          +0.004*[#  74]+0.004*[#  91]+0.004*[# 110]+0.003*[#  13]+0.003*[#  28]
          +0.003*[#  40]+0.003*[# 100]+0.002*[#  75]+0.002*[# 111]+0.002*[#  34]
          +0.002*[# 106]+0.001*[#  81]+0.001*[# 117]+0.001*[#  15]+0.001*[#  42]
          +0.001*[#   7]+0.001*[#  52]+0.001*[#  79]+0.001*[# 115]+0.001*[#   1]
          +0.001*[#  27]+0.001*[#  46]+0.001*[#  61]+0.001*[#  88]+0.001*[#  99]
          
    |psi|^2 = 0.971
==== e(  82) =    -1.01371 eV ==== 
     psi = 0.082*[#  74]+0.082*[# 110]+0.079*[#  13]+0.079*[#  40]+0.069*[#  57]
          +0.069*[#  84]+0.062*[#  22]+0.062*[#  94]+0.048*[#   2]+0.048*[#  47]
          +0.032*[#  30]+0.032*[# 102]+0.016*[#  58]+0.016*[#  85]+0.016*[#  31]
          +0.016*[#  75]+0.016*[# 103]+0.016*[# 111]+0.015*[#  29]+0.015*[# 101]
          +0.010*[#  56]+0.010*[#  83]+0.010*[#  12]+0.010*[#  39]+0.007*[#   3]
          +0.007*[#  48]+0.003*[#  21]+0.003*[#  93]+0.003*[#   4]+0.003*[#  49]
          +0.002*[#  11]+0.002*[#  38]+0.002*[#  25]+0.002*[#  97]+0.002*[#   7]
          +0.002*[#  52]+0.001*[#  18]+0.001*[#  45]+0.001*[#  35]+0.001*[# 107]
          
    |psi|^2 = 0.968
==== e(  83) =    -1.01307 eV ==== 
     psi = 0.080*[#   3]+0.080*[#  48]+0.062*[#  74]+0.062*[# 110]+0.059*[#  31]
          +0.059*[# 103]+0.052*[#  22]+0.052*[#  94]+0.044*[#   4]+0.044*[#  49]
          +0.038*[#  30]+0.038*[# 102]+0.034*[#  75]+0.033*[# 111]+0.026*[#  13]
          +0.026*[#  40]+0.019*[#  20]+0.019*[#  92]+0.015*[#  58]+0.015*[#  85]
          +0.015*[#  56]+0.015*[#  83]+0.014*[#   2]+0.014*[#  47]+0.004*[#  21]
          +0.004*[#  93]+0.004*[#  29]+0.004*[# 101]+0.003*[#  76]+0.003*[# 112]
          +0.003*[#  11]+0.003*[#  38]+0.002*[#  17]+0.002*[#  25]+0.002*[#  44]
          +0.002*[#  97]+0.001*[#  62]+0.001*[#  89]+0.001*[#  78]+0.001*[# 114]
          +0.001*[#  16]+0.001*[#  43]+0.001*[#  61]+0.001*[#  88]
    |psi|^2 = 0.968
==== e(  84) =    -1.01264 eV ==== 
     psi = 0.099*[#  12]+0.099*[#  39]+0.073*[#  20]+0.073*[#  92]+0.056*[#  56]
          +0.056*[#  83]+0.046*[#  31]+0.046*[# 103]+0.028*[#   2]+0.028*[#  47]
          +0.028*[#   4]+0.028*[#  49]+0.027*[#  11]+0.027*[#  38]+0.027*[#  57]
          +0.027*[#  84]+0.022*[#  29]+0.022*[# 101]+0.016*[#  75]+0.016*[# 111]
          +0.015*[#  30]+0.015*[# 102]+0.013*[#  58]+0.013*[#  85]+0.012*[#  74]
          +0.012*[# 110]+0.004*[#   3]+0.004*[#  48]+0.002*[#  22]+0.002*[#  94]
          +0.002*[#  13]+0.002*[#  40]+0.002*[#   5]+0.002*[#  23]+0.002*[#  35]
          +0.002*[#  50]+0.002*[#  77]+0.002*[#  95]+0.002*[# 107]+0.002*[# 113]
          +0.001*[#  21]+0.001*[#  93]
    |psi|^2 = 0.968
==== e(  85) =    -1.01210 eV ==== 
     psi = 0.082*[#  75]+0.082*[# 111]+0.064*[#  20]+0.064*[#  92]+0.062*[#  58]
          +0.062*[#  85]+0.060*[#  30]+0.060*[# 102]+0.041*[#   2]+0.041*[#  47]
          +0.035*[#  13]+0.035*[#  40]+0.034*[#  22]+0.034*[#  94]+0.018*[#  38]
          +0.018*[#  57]+0.018*[#  11]+0.018*[#  84]+0.017*[#   4]+0.017*[#  49]
          +0.013*[#  12]+0.013*[#  39]+0.012*[#  56]+0.012*[#  83]+0.007*[#  31]
          +0.007*[# 103]+0.005*[#  76]+0.005*[# 112]+0.002*[#  36]+0.002*[# 108]
          +0.002*[#   6]+0.002*[#  51]+0.002*[#  78]+0.002*[# 114]+0.001*[#  29]
          +0.001*[# 101]
    |psi|^2 = 0.968
==== e(  86) =    -0.21317 eV ==== 
     psi = 0.015*[#  64]
    |psi|^2 = 0.019

Lowdin Charges: 

     Atom #   1: total charge =  10.9486, s =  0.4932, p =  0.5992, d =  9.8561, 
                 spin up      =   5.6766, s =  0.3199, 
                 spin up      =   5.6766, p =  0.4242, pz=  0.1587, px=  0.1325, py=  0.1329, 
                 spin up      =   5.6766, d =  4.9325, dz2=  0.9872, dxz=  0.9861, dyz=  0.9861, dx2-y2=  0.9894, dxy=  0.9838, 
                 spin down    =   5.2720, s =  0.1733, 
                 spin down    =   5.2720, p =  0.1750, pz=  0.0612, px=  0.0569, py=  0.0569, 
                 spin down    =   5.2720, d =  4.9236, dz2=  0.9850, dxz=  0.9843, dyz=  0.9843, dx2-y2=  0.9872, dxy=  0.9828, 
                 polarization =   0.4047, s =  0.1466, p =  0.2492, d =  0.0089, 
     Atom #   2: total charge =  10.9484, s =  0.4932, p =  0.5990, d =  9.8562, 
                 spin up      =   5.6766, s =  0.3200, 
                 spin up      =   5.6766, p =  0.4240, pz=  0.1059, px=  0.1522, py=  0.1660, 
                 spin up      =   5.6766, d =  4.9326, dz2=  0.9873, dxz=  0.9848, dyz=  0.9871, dx2-y2=  0.9869, dxy=  0.9864, 
                 spin down    =   5.2719, s =  0.1733, 
                 spin down    =   5.2719, p =  0.1749, pz=  0.0524, px=  0.0601, py=  0.0624, 
                 spin down    =   5.2719, d =  4.9237, dz2=  0.9858, dxz=  0.9837, dyz=  0.9854, dx2-y2=  0.9846, dxy=  0.9842, 
                 polarization =   0.4047, s =  0.1467, p =  0.2491, d =  0.0089, 
     Atom #   3: total charge =  10.9484, s =  0.4932, p =  0.5989, d =  9.8562, 
                 spin up      =   5.6765, s =  0.3199, 
                 spin up      =   5.6765, p =  0.4240, pz=  0.1743, px=  0.0793, py=  0.1704, 
                 spin up      =   5.6765, d =  4.9326, dz2=  0.9847, dxz=  0.9896, dyz=  0.9859, dx2-y2=  0.9837, dxy=  0.9886, 
                 spin down    =   5.2719, s =  0.1733, 
                 spin down    =   5.2719, p =  0.1749, pz=  0.0637, px=  0.0481, py=  0.0631, 
                 spin down    =   5.2719, d =  4.9237, dz2=  0.9829, dxz=  0.9876, dyz=  0.9834, dx2-y2=  0.9830, dxy=  0.9868, 
                 polarization =   0.4047, s =  0.1467, p =  0.2491, d =  0.0089, 
     Atom #   4: total charge =  10.9484, s =  0.4933, p =  0.5990, d =  9.8562, 
                 spin up      =   5.6766, s =  0.3200, 
                 spin up      =   5.6766, p =  0.4240, pz=  0.1002, px=  0.1676, py=  0.1563, 
                 spin up      =   5.6766, d =  4.9326, dz2=  0.9865, dxz=  0.9875, dyz=  0.9854, dx2-y2=  0.9867, dxy=  0.9864, 
                 spin down    =   5.2718, s =  0.1733, 
                 spin down    =   5.2718, p =  0.1749, pz=  0.0515, px=  0.0626, py=  0.0608, 
                 spin down    =   5.2718, d =  4.9237, dz2=  0.9853, dxz=  0.9857, dyz=  0.9842, dx2-y2=  0.9844, dxy=  0.9841, 
                 polarization =   0.4047, s =  0.1467, p =  0.2491, d =  0.0089, 
     Atom #   5: total charge =  10.9485, s =  0.4932, p =  0.5990, d =  9.8562, 
                 spin up      =   5.6766, s =  0.3199, 
                 spin up      =   5.6766, p =  0.4241, pz=  0.1059, px=  0.1522, py=  0.1660, 
                 spin up      =   5.6766, d =  4.9325, dz2=  0.9873, dxz=  0.9848, dyz=  0.9871, dx2-y2=  0.9869, dxy=  0.9864, 
                 spin down    =   5.2719, s =  0.1733, 
                 spin down    =   5.2719, p =  0.1750, pz=  0.0525, px=  0.0601, py=  0.0624, 
                 spin down    =   5.2719, d =  4.9236, dz2=  0.9858, dxz=  0.9837, dyz=  0.9854, dx2-y2=  0.9846, dxy=  0.9842, 
                 polarization =   0.4046, s =  0.1466, p =  0.2491, d =  0.0089, 
     Atom #   6: total charge =  10.9485, s =  0.4932, p =  0.5991, d =  9.8562, 
                 spin up      =   5.6766, s =  0.3199, 
                 spin up      =   5.6766, p =  0.4241, pz=  0.1587, px=  0.1325, py=  0.1329, 
                 spin up      =   5.6766, d =  4.9325, dz2=  0.9872, dxz=  0.9861, dyz=  0.9861, dx2-y2=  0.9894, dxy=  0.9838, 
                 spin down    =   5.2719, s =  0.1733, 
                 spin down    =   5.2719, p =  0.1750, pz=  0.0612, px=  0.0569, py=  0.0569, 
                 spin down    =   5.2719, d =  4.9236, dz2=  0.9850, dxz=  0.9843, dyz=  0.9843, dx2-y2=  0.9872, dxy=  0.9828, 
                 polarization =   0.4046, s =  0.1466, p =  0.2491, d =  0.0089, 
     Atom #   7: total charge =  10.9485, s =  0.4932, p =  0.5991, d =  9.8562, 
                 spin up      =   5.6766, s =  0.3199, 
                 spin up      =   5.6766, p =  0.4241, pz=  0.1340, px=  0.1474, py=  0.1427, 
                 spin up      =   5.6766, d =  4.9325, dz2=  0.9888, dxz=  0.9851, dyz=  0.9848, dx2-y2=  0.9883, dxy=  0.9855, 
                 spin down    =   5.2719, s =  0.1733, 
                 spin down    =   5.2719, p =  0.1750, pz=  0.0571, px=  0.0593, py=  0.0585, 
                 spin down    =   5.2719, d =  4.9236, dz2=  0.9867, dxz=  0.9837, dyz=  0.9834, dx2-y2=  0.9860, dxy=  0.9838, 
                 polarization =   0.4046, s =  0.1466, p =  0.2491, d =  0.0089, 
     Atom #   8: total charge =  11.3912, s =  0.3528, p =  1.2963, d =  9.7421, 
                 spin up      =   5.7313, s =  0.1728, 
                 spin up      =   5.7313, p =  0.6284, pz=  0.2095, px=  0.2095, py=  0.2095, 
                 spin up      =   5.7313, d =  4.9301, dz2=  0.9860, dxz=  0.9860, dyz=  0.9860, dx2-y2=  0.9860, dxy=  0.9860, 
                 spin down    =   5.6599, s =  0.1800, 
                 spin down    =   5.6599, p =  0.6679, pz=  0.2226, px=  0.2226, py=  0.2226, 
                 spin down    =   5.6599, d =  4.8120, dz2=  0.9624, dxz=  0.9624, dyz=  0.9624, dx2-y2=  0.9624, dxy=  0.9624, 
                 polarization =   0.0714, s = -0.0072, p = -0.0395, d =  0.1181, 
     Atom #   9: total charge =  10.9485, s =  0.4933, p =  0.5990, d =  9.8562, 
                 spin up      =   5.6766, s =  0.3200, 
                 spin up      =   5.6766, p =  0.4241, pz=  0.1751, px=  0.1691, py=  0.0798, 
                 spin up      =   5.6766, d =  4.9325, dz2=  0.9845, dxz=  0.9860, dyz=  0.9898, dx2-y2=  0.9840, dxy=  0.9883, 
                 spin down    =   5.2719, s =  0.1733, 
                 spin down    =   5.2719, p =  0.1750, pz=  0.0639, px=  0.0629, py=  0.0481, 
                 spin down    =   5.2719, d =  4.9236, dz2=  0.9827, dxz=  0.9835, dyz=  0.9877, dx2-y2=  0.9832, dxy=  0.9866, 
                 polarization =   0.4047, s =  0.1467, p =  0.2491, d =  0.0089, 
     Atom #  10: total charge =  10.9485, s =  0.4932, p =  0.5991, d =  9.8562, 
                 spin up      =   5.6766, s =  0.3199, 
                 spin up      =   5.6766, p =  0.4241, pz=  0.1340, px=  0.1474, py=  0.1427, 
                 spin up      =   5.6766, d =  4.9325, dz2=  0.9888, dxz=  0.9851, dyz=  0.9848, dx2-y2=  0.9883, dxy=  0.9855, 
                 spin down    =   5.2720, s =  0.1733, 
                 spin down    =   5.2720, p =  0.1750, pz=  0.0571, px=  0.0593, py=  0.0585, 
                 spin down    =   5.2720, d =  4.9236, dz2=  0.9867, dxz=  0.9837, dyz=  0.9834, dx2-y2=  0.9860, dxy=  0.9838, 
                 polarization =   0.4046, s =  0.1466, p =  0.2491, d =  0.0089, 
     Atom #  11: total charge =  10.9485, s =  0.4932, p =  0.5992, d =  9.8562, 
                 spin up      =   5.6766, s =  0.3199, 
                 spin up      =   5.6766, p =  0.4242, pz=  0.1743, px=  0.0793, py=  0.1705, 
                 spin up      =   5.6766, d =  4.9325, dz2=  0.9847, dxz=  0.9896, dyz=  0.9859, dx2-y2=  0.9837, dxy=  0.9886, 
                 spin down    =   5.2719, s =  0.1733, 
                 spin down    =   5.2719, p =  0.1750, pz=  0.0638, px=  0.0481, py=  0.0632, 
                 spin down    =   5.2719, d =  4.9236, dz2=  0.9829, dxz=  0.9876, dyz=  0.9834, dx2-y2=  0.9829, dxy=  0.9868, 
                 polarization =   0.4046, s =  0.1466, p =  0.2491, d =  0.0089, 
     Atom #  12: total charge =  10.9484, s =  0.4933, p =  0.5989, d =  9.8562, 
                 spin up      =   5.6766, s =  0.3200, 
                 spin up      =   5.6766, p =  0.4240, pz=  0.1002, px=  0.1676, py=  0.1563, 
                 spin up      =   5.6766, d =  4.9326, dz2=  0.9865, dxz=  0.9875, dyz=  0.9854, dx2-y2=  0.9867, dxy=  0.9864, 
                 spin down    =   5.2718, s =  0.1733, 
                 spin down    =   5.2718, p =  0.1749, pz=  0.0515, px=  0.0626, py=  0.0608, 
                 spin down    =   5.2718, d =  4.9237, dz2=  0.9853, dxz=  0.9857, dyz=  0.9842, dx2-y2=  0.9844, dxy=  0.9841, 
                 polarization =   0.4047, s =  0.1467, p =  0.2491, d =  0.0089, 
     Atom #  13: total charge =  10.9485, s =  0.4932, p =  0.5991, d =  9.8562, 
                 spin up      =   5.6766, s =  0.3199, 
                 spin up      =   5.6766, p =  0.4241, pz=  0.1752, px=  0.1692, py=  0.0798, 
                 spin up      =   5.6766, d =  4.9325, dz2=  0.9845, dxz=  0.9859, dyz=  0.9898, dx2-y2=  0.9840, dxy=  0.9883, 
                 spin down    =   5.2719, s =  0.1733, 
                 spin down    =   5.2719, p =  0.1750, pz=  0.0639, px=  0.0629, py=  0.0481, 
                 spin down    =   5.2719, d =  4.9236, dz2=  0.9827, dxz=  0.9835, dyz=  0.9877, dx2-y2=  0.9832, dxy=  0.9866, 
                 polarization =   0.4047, s =  0.1466, p =  0.2491, d =  0.0089, 
     Spilling Parameter:   0.0016
 
     PROJWFC      :     38.79s CPU     42.57s WALL

 
   This run was terminated on:  21:52:18  13Feb2021            

=------------------------------------------------------------------------------=
   JOB DONE.
=------------------------------------------------------------------------------=
