
     Program PROJWFC v.6.5 starts on 16Dec2020 at 16:30:11 

     This program is part of the open-source Quantum ESPRESSO suite
     for quantum simulation of materials; please cite
         "P. Giannozzi et al., J. Phys.:Condens. Matter 21 395502 (2009);
         "P. Giannozzi et al., J. Phys.:Condens. Matter 29 465901 (2017);
          URL http://www.quantum-espresso.org", 
     in publications or presentations arising from this work. More details at
     http://www.quantum-espresso.org/quote

     Parallel version (MPI & OpenMP), running on      24 processor cores
     Number of MPI processes:                24
     Threads/MPI process:                     1

     MPI processes distributed on     1 nodes
     R & G space division:  proc/nbgrp/npool/nimage =      24

     Reading xml data from directory:

     ./tmp/ag13.save/
     Message from routine  set_nelup_neldw :
     BEWARE: non-integer number of up and down electrons!

     IMPORTANT: XC functional enforced from input :
     Exchange-correlation= PBE
                           (   1   4   3   4   0   0   0)
     Any further DFT definition will be discarded
     Please, verify this is what you really want

               file Ag.pbe-dn-kjpaw_psl.0.1.UPF: wavefunction(s)  5S 5P 4D renormalized
 
     Parallelization info
     --------------------
     sticks:   dense  smooth     PW     G-vecs:    dense   smooth      PW
     Min        1121     747    186               138682    75476    9438
     Max        1124     750    188               138694    75484    9452
     Sum       26933   17961   4493              3328469  1811511  226639
 
     Generating pointlists ...
     new r_m :   0.0516 (alat units)  2.1687 (a.u.) for type    1

     Gaussian broadening (read from input): ngauss,degauss= -99    0.000700


     Calling projwave_paw .... 
 pcharge:            1           1           0  0.497524261560343     
 pcharge:            1           2           0 -0.114480773924629     
 pcharge:            2           1           0 -0.114480773924629     
 pcharge:            2           2           0  0.413873770475244     
 pcharge:            3           3           1  0.161297691399739     
 pcharge:            3           4           1 -3.960221655925969E-002
 pcharge:            4           3           1 -3.960221655925969E-002
 pcharge:            4           4           1  0.398366759990194     
 pcharge:            5           5           2  0.965226918010316     
 pcharge:            5           6           2 -7.050874636853786E-002
 pcharge:            6           5           2 -7.050874636853786E-002
 pcharge:            6           6           2  0.471116703231503     
 
     PROJWFC      :     25.16s CPU     32.10s WALL

 
   This run was terminated on:  16:30:43  16Dec2020            

=------------------------------------------------------------------------------=
   JOB DONE.
=------------------------------------------------------------------------------=
